    -----------------------------------------------------------------------
          PSI4: An Open-Source Ab Initio Electronic Structure Package
                              PSI 4.0.0-beta1 Driver

               Git: Rev 8268e5ba0276eef671d5bc4a44cf66fa46407463

    J. M. Turney, A. C. Simmonett, R. M. Parrish, E. G. Hohenstein,
    F. A. Evangelista, J. T. Fermann, B. J. Mintz, L. A. Burns, J. J. Wilke,
    M. L. Abrams, N. J. Russ, M. L. Leininger, C. L. Janssen, E. T. Seidl,
    W. D. Allen, H. F. Schaefer, R. A. King, E. F. Valeev, C. D. Sherrill,
    and T. D. Crawford, WIREs Comput. Mol. Sci., (2011) (doi: 10.1002/wcms.93)

                         Additional Contributions by
    A. E. DePrince, M. Saitow, U. Bozkaya, A. Yu. Sokolov
    -----------------------------------------------------------------------


    Using LocalCommunicator (Number of processes = 1)

    Memory level set to 256.000 MB

  ==> Input File <==

--------------------------------------------------------------------------
#! ROHF-CCSD(T) cc-pVDZ energy for the $^2\Sigma^+$ state of the CN radical, 
#! with Z-matrix input.

memory 250 mb

molecule CN {
  0 2
  C
  N 1 R

  R = 1.175
}

set {
  reference   rohf
  basis       cc-pVDZ
  docc        [4, 0, 1, 1]
  socc        [1, 0, 0, 0]
  ao_basis disk
  delete_tei false

  r_convergence 10
  e_convergence 10
  d_convergence 10
}

energy('ccsd(t)')

enuc   =  18.91527043470638   #TEST
escf   = -92.19555660616878   #TEST
eccsd  =  -0.28492292236582   #TEST
e_t    =  -0.01406303578471   #TEST
etotal = -92.49454256431926   #TEST

compare_values(enuc, CN.nuclear_repulsion_energy(), 9, "Nuclear repulsion energy") #TEST
compare_values(escf, get_variable("SCF total energy"), 9, "SCF energy")               #TEST
compare_values(eccsd, get_variable("CCSD correlation energy"), 9, "CCSD contribution")        #TEST
compare_values(e_t, get_variable("(T) correction energy"), 9, "(T) contribution")         #TEST
compare_values(etotal, get_variable("Current energy"), 9, "Total energy")             #TEST
--------------------------------------------------------------------------

  Memory set to 250.000 MiB by Python script.

*** tstart() called on lawn-143-215-103-161.lawn.gatech.edu
*** at Fri Apr 27 14:11:36 2012


         ---------------------------------------------------------
                                   SCF
            by Justin Turney, Rob Parrish, and Andy Simmonett
                             ROHF Reference
                        1 Threads,    250 MiB Core
         ---------------------------------------------------------

  ==> Geometry <==

    Molecular point group: c2v

    Geometry (in Angstrom), charge = 0, multiplicity = 2:

       Center              X                  Y                   Z       
    ------------   -----------------  -----------------  -----------------
           C          0.000000000000     0.000000000000    -0.632756417668
           N          0.000000000000     0.000000000000     0.542243582332

  Running in c2v symmetry.

  Nuclear repulsion =   18.915270434706382

  Charge       = 0
  Multiplicity = 2
  Electrons    = 13
  Nalpha       = 7
  Nbeta        = 6

  ==> Algorithm <==

  SCF Algorithm Type is PK.
  DIIS enabled.
  MOM disabled.
  Fractional occupation disabled.
  Guess Type is CORE.
  Energy threshold   = 1.00e-10
  Density threshold  = 1.00e-10
  Integral threshold = 0.00e+00

  ==> Primary Basis <==

  Basis Set: cc-pVDZ
    Number of shells: 12
    Number of basis function: 28
    Number of Cartesian functions: 30
    Spherical Harmonics?: true
    Max angular momentum: 2

  ==> Pre-Iterations <==

  Minimum eigenvalue in the overlap matrix is 1.0795200227E-02.
  Using Symmetric Orthogonalization.
  SCF Guess: Core (One-Electron) Hamiltonian.

  Initial ROHF energy:   -72.85578115621330

   -------------------------------------------------------
    Irrep   Nso     Nmo     Nalpha   Nbeta   Ndocc  Nsocc
   -------------------------------------------------------
     A1        14      14       5       4       4       1
     A2         2       2       0       0       0       0
     B1         6       6       1       1       1       0
     B2         6       6       1       1       1       0
   -------------------------------------------------------
    Total      28      28       7       6       6       1
   -------------------------------------------------------

  ==> Integral Setup <==

 MINTS: Wrapper to libmints.
   by Justin Turney

   Calculation information:
      Number of atoms:                   2
      Number of AO shells:              12
      Number of SO shells:              12
      Number of primitives:             44
      Number of atomic orbitals:        30
      Number of basis functions:        28

      Number of irreps:                  4
      Number of functions per irrep: [  14    2    6    6 ]

      Overlap, kinetic, potential, dipole, and quadrupole integrals
        stored in file 35.

      Computing two-electron integrals...done
      Computed 19125 non-zero two-electron integrals.
        Stored in file 33.

  ==> Iterations <==

                        Total Energy        Delta E     Density RMS

   @ROHF iter   1:   -83.19841367423672   -1.03426e+01   6.94880e-310 
   @ROHF iter   2:   -84.13066745073191   -9.32254e-01   6.88627e-01 DIIS
   @ROHF iter   3:   -91.43784766460426   -7.30718e+00   6.13977e-01 DIIS
   @ROHF iter   4:   -91.96811661078530   -5.30269e-01   5.92065e-02 DIIS
   @ROHF iter   5:   -92.16397428455976   -1.95858e-01   2.22209e-02 DIIS
   @ROHF iter   6:   -92.19393972046133   -2.99654e-02   1.45283e-02 DIIS
   @ROHF iter   7:   -92.19518728276596   -1.24756e-03   2.31421e-03 DIIS
   @ROHF iter   8:   -92.19551335535579   -3.26073e-04   1.53652e-03 DIIS
   @ROHF iter   9:   -92.19555265917712   -3.93038e-05   6.85208e-04 DIIS
   @ROHF iter  10:   -92.19555654080794   -3.88163e-06   3.05451e-04 DIIS
   @ROHF iter  11:   -92.19555660474855   -6.39406e-08   3.94672e-05 DIIS
   @ROHF iter  12:   -92.19555660615859   -1.41004e-09   8.42823e-06 DIIS
   @ROHF iter  13:   -92.19555660616859   -1.00044e-11   3.50113e-07 DIIS
   @ROHF iter  14:   -92.19555660616876   -1.70530e-13   6.85466e-08 DIIS
   @ROHF iter  15:   -92.19555660616886   -9.94760e-14   7.76915e-09 DIIS
   @ROHF iter  16:   -92.19555660616879    7.10543e-14   7.30050e-10 DIIS

  ==> Post-Iterations <==

	Orbital Energies (a.u.)
	-----------------------

	Doubly Occupied:                                                      

	   1A1   -15.636443     2A1   -11.359535     3A1    -1.246019  
	   4A1    -0.626091     1B2    -0.507352     1B1    -0.507352  

	Singly Occupied:                                                      

	   5A1    -0.337390  

	Virtual:                                                              

	   2B1     0.177180     2B2     0.177180     6A1     0.384745  
	   3B2     0.655939     3B1     0.655939     7A1     0.699522  
	   8A1     0.869525     4B1     1.036480     4B2     1.036480  
	   9A1     1.044978     1A2     1.314443    10A1     1.314443  
	   5B1     1.503400     5B2     1.503400    11A1     1.564388  
	   2A2     2.160944    12A1     2.160944    13A1     2.254479  
	   6B1     2.677031     6B2     2.677031    14A1     3.095851  

	Final Occupation by Irrep:
	         A1    A2    B1    B2 
	DOCC [     4,    0,    1,    1 ]
	SOCC [     1,    0,    0,    0 ]

  Energy converged.

  @ROHF Final Energy:   -92.19555660616879

   => Energetics <=

    Nuclear Repulsion Energy =         18.9152704347063825
    One-Electron Energy =            -161.7960330259093666
    Two-Electron Energy =              50.6852059850341803
    DFT Functional Energy =             0.0000000000000000
    Empirical Dispersion Energy =       0.0000000000000000
    Total Energy =                    -92.1955566061688216

  ==> Properties <==

  Nuclear Dipole Moment: (a.u.)
     X:     0.0000      Y:     0.0000      Z:    -0.0016

  Electronic Dipole Moment: (a.u.)
     X:     0.0000      Y:     0.0000      Z:    -0.8531

  Dipole Moment: (a.u.)
     X:     0.0000      Y:     0.0000      Z:    -0.8546     Total:     0.8546

  Dipole Moment: (Debye)
     X:     0.0000      Y:     0.0000      Z:    -2.1723     Total:     2.1723


  Saving occupied orbitals to File 180.

*** tstop() called on lawn-143-215-103-161.lawn.gatech.edu at Fri Apr 27 14:11:36 2012
Module time:
	user time   =       0.17 seconds =       0.00 minutes
	system time =       0.01 seconds =       0.00 minutes
	total time  =          0 seconds =       0.00 minutes
Total time:
	user time   =       0.17 seconds =       0.00 minutes
	system time =       0.01 seconds =       0.00 minutes
	total time  =          0 seconds =       0.00 minutes

*** tstart() called on lawn-143-215-103-161.lawn.gatech.edu
*** at Fri Apr 27 14:11:36 2012


	**************************************************
	* TRANSQT2: Program to transform integrals from  *
	*           the SO basis to the MO basis.        *
	*                                                *
	*            Daniel, David, & Justin             *
	**************************************************


	Input parameters:
	-----------------
	Wave function   =	CCSD_T
	Backtransform   =	No
	Print Level     =	1
	Print TEIs      =	No
	Reference wfn   =	ROHF (using UHF for semicanonical orbitals)
	Derivative      =	None
	Delete TEI File =	No
	Memory (Mbytes) =	250.0
	Cache Level     =	2
	Cache Type      =	LRU
	Chkpt Parameters:
	--------------------
	Number of irreps     = 4
	Number of SOs        = 28
	Number of MOs        = 28
	Number of active MOs = 28

	Label	# SOs	# FZDC	# DOCC	# SOCC	# VIRT	# FZVR
	-----	-----	------	------	------	------	------
	 A1	   14	    0	    4	    1	    9	    0
	 A2	   2	    0	    0	    0	    2	    0
	 B1	   6	    0	    1	    0	    5	    0
	 B2	   6	    0	    1	    0	    5	    0

	Nuclear Rep. energy (chkpt) =     18.91527043470638
	SCF energy          (chkpt) =    -92.19555660616879

	Presorting SO-basis two-electron integrals.
	Sorting File: SO Ints (pq,rs) nbuckets = 1
	Frozen-core energy =    0.000000000000000
	Starting AA/AB first half-transformation.
	Sorting AA/AB half-transformed integrals.
	Starting AA second half-transformation.
	Starting AB second half-transformation.
	Starting BB first half-transformation.
	Sorting BB half-transformed integrals.
	Starting BB second half-transformation.
	Two-electron integral transformation complete.

*** tstop() called on lawn-143-215-103-161.lawn.gatech.edu at Fri Apr 27 14:11:36 2012
Module time:
	user time   =       0.04 seconds =       0.00 minutes
	system time =       0.03 seconds =       0.00 minutes
	total time  =          0 seconds =       0.00 minutes
Total time:
	user time   =       0.21 seconds =       0.00 minutes
	system time =       0.04 seconds =       0.00 minutes
	total time  =          0 seconds =       0.00 minutes

*** tstart() called on lawn-143-215-103-161.lawn.gatech.edu
*** at Fri Apr 27 14:11:36 2012


			**************************
			*                        *
			*         CCSORT         *
			*                        *
			**************************


	Input parameters:
	-----------------
	Wave function   =	CCSD_T
	Reference wfn   =	ROHF changed to UHF for Semicanonical Orbitals
	Derivative      =	None
	Memory (Mbytes) =	250.0
	AO Basis        =	DISK
	Make (ab|cd)    =	False
	Make unpacked (ab|cd) =	False
	Cache Level     =	2
	Cache Type      =	LRU
	Local CC        =     No


	Chkpt Parameters:
	--------------------
	Number of irreps     = 4
	Number of MOs        = 28
	Number of active MOs = 28

	Label	# MOs	# FZDC	# DOCC	# SOCC	# VIRT	# FZVR
	-----	-----	------	------	------	------	------
	 A1	   14	    0	    4	    1	    9	    0
	 A2	   2	    0	    0	    0	    2	    0
	 B1	   6	    0	    1	    0	    5	    0
	 B2	   6	    0	    1	    0	    5	    0

	Nuclear Rep. energy (chkpt) =     18.91527043470638
	SCF energy          (chkpt) =    -92.19555660616879

	Size of irrep 0 of <AB|CD> integrals:      0.003 (MW) /      0.026 (MB)
	Size of irrep 1 of <AB|CD> integrals:      0.002 (MW) /      0.015 (MB)
	Size of irrep 2 of <AB|CD> integrals:      0.003 (MW) /      0.024 (MB)
	Size of irrep 3 of <AB|CD> integrals:      0.003 (MW) /      0.024 (MB)
	Total:                                     0.011 (MW) /      0.089 (MB)

	Size of irrep 0 of <ab|cd> integrals:      0.004 (MW) /      0.035 (MB)
	Size of irrep 1 of <ab|cd> integrals:      0.002 (MW) /      0.016 (MB)
	Size of irrep 2 of <ab|cd> integrals:      0.004 (MW) /      0.029 (MB)
	Size of irrep 3 of <ab|cd> integrals:      0.004 (MW) /      0.029 (MB)
	Total:                                     0.014 (MW) /      0.109 (MB)

	Size of irrep 0 of <Ab|Cd> integrals:      0.021 (MW) /      0.166 (MB)
	Size of irrep 1 of <Ab|Cd> integrals:      0.008 (MW) /      0.062 (MB)
	Size of irrep 2 of <Ab|Cd> integrals:      0.013 (MW) /      0.106 (MB)
	Size of irrep 3 of <Ab|Cd> integrals:      0.013 (MW) /      0.106 (MB)
	Total:                                     0.055 (MW) /      0.439 (MB)

	Size of irrep 0 of <IA|BC> integrals:      0.007 (MW) /      0.059 (MB)
	Size of irrep 1 of <IA|BC> integrals:      0.002 (MW) /      0.014 (MB)
	Size of irrep 2 of <IA|BC> integrals:      0.004 (MW) /      0.032 (MB)
	Size of irrep 3 of <IA|BC> integrals:      0.004 (MW) /      0.032 (MB)
	Total:                                     0.017 (MW) /      0.137 (MB)

	Size of irrep 0 of <ia|bc> integrals:      0.008 (MW) /      0.062 (MB)
	Size of irrep 1 of <ia|bc> integrals:      0.002 (MW) /      0.013 (MB)
	Size of irrep 2 of <ia|bc> integrals:      0.004 (MW) /      0.031 (MB)
	Size of irrep 3 of <ia|bc> integrals:      0.004 (MW) /      0.031 (MB)
	Total:                                     0.017 (MW) /      0.136 (MB)

	Size of irrep 0 of <Ia|Bc> integrals:      0.009 (MW) /      0.069 (MB)
	Size of irrep 1 of <Ia|Bc> integrals:      0.002 (MW) /      0.014 (MB)
	Size of irrep 2 of <Ia|Bc> integrals:      0.004 (MW) /      0.034 (MB)
	Size of irrep 3 of <Ia|Bc> integrals:      0.004 (MW) /      0.034 (MB)
	Total:                                     0.019 (MW) /      0.151 (MB)

	Size of irrep 0 of <iA|bC> integrals:      0.007 (MW) /      0.053 (MB)
	Size of irrep 1 of <iA|bC> integrals:      0.002 (MW) /      0.013 (MB)
	Size of irrep 2 of <iA|bC> integrals:      0.004 (MW) /      0.029 (MB)
	Size of irrep 3 of <iA|bC> integrals:      0.004 (MW) /      0.029 (MB)
	Total:                                     0.015 (MW) /      0.123 (MB)

	Size of irrep 0 of tIjAb amplitudes:       0.003 (MW) /      0.025 (MB)
	Size of irrep 1 of tIjAb amplitudes:       0.000 (MW) /      0.001 (MB)
	Size of irrep 2 of tIjAb amplitudes:       0.001 (MW) /      0.008 (MB)
	Size of irrep 3 of tIjAb amplitudes:       0.001 (MW) /      0.008 (MB)
	Total:                                     0.005 (MW) /      0.043 (MB)


	Sorting File: A <IJ|KL> nbuckets = 1
	Sorting File: C <IA|JB> nbuckets = 1
	Sorting File: D <IJ|AB> nbuckets = 1
	Sorting File: E <AI|JK> nbuckets = 1
	Sorting File: F <IA|BC> nbuckets = 1
	Sorting File: F <AI|BC> nbuckets = 1
	Sorting File: A <ij|kl> nbuckets = 1
	Sorting File: C <ia|jb> nbuckets = 1
	Sorting File: D <ij|ab> nbuckets = 1
	Sorting File: E <ai|jk> nbuckets = 1
	Sorting File: F <ia|bc> nbuckets = 1
	Sorting File: F <ai|bc> nbuckets = 1
	Sorting File: A <Ij|Kl> nbuckets = 1
	Sorting File: C <Ia|Jb> nbuckets = 1
	Sorting File: C <Ai|Bj> nbuckets = 1
	Sorting File: D <Ij|Ab> nbuckets = 1
	Sorting File: E <Ai|Jk> nbuckets = 1
	Sorting File: E <Ij|Ka> nbuckets = 1
	Sorting File: F <Ia|Bc> nbuckets = 1
	Sorting File: F <aI|bC> nbuckets = 1
	Sorting File: F <Ab|Ci> nbuckets = 1
	Sorting File: F <Ai|Bc> nbuckets = 1
	One-electron energy          =   -161.79603302510702
	Two-electron (AA) energy     =     11.19205100820393
	Two-electron (BB) energy     =      8.49570670568741
	Two-electron (AB) energy     =     30.99744827034048
	Two-electron energy          =     50.68520598423183
	Frozen-core energy (transqt) =      0.00000000000000
	Reference energy             =    -92.19555660616882

*** tstop() called on lawn-143-215-103-161.lawn.gatech.edu at Fri Apr 27 14:11:37 2012
Module time:
	user time   =       0.05 seconds =       0.00 minutes
	system time =       0.07 seconds =       0.00 minutes
	total time  =          1 seconds =       0.02 minutes
Total time:
	user time   =       0.26 seconds =       0.00 minutes
	system time =       0.11 seconds =       0.00 minutes
	total time  =          1 seconds =       0.02 minutes

*** tstart() called on lawn-143-215-103-161.lawn.gatech.edu
*** at Fri Apr 27 14:11:37 2012

			**************************
			*                        *
			*        CCENERGY        *
			*                        *
			**************************

	Nuclear Rep. energy (chkpt)   =   18.915270434706382
	SCF energy          (chkpt)   =  -92.195556606168793
	Reference energy    (file100) =  -92.195556606168822

	Input parameters:
	-----------------
	Wave function   =   CCSD_T
	Reference wfn   =     ROHF changed to UHF for Semicanonical Orbitals
	Memory (Mbytes) =     250.0
	Maxiter         =     50
	Convergence     =     1.0e-10
	Restart         =     No
	DIIS            =     Yes
	AO Basis        =     DISK
	ABCD            =     NEW
	Cache Level     =     2
	Cache Type      =     LRU
	Print Level     =     1
	Num. of threads =     1
	# Amps to Print =     10
	Print MP2 Amps? =     No
	Analyze T2 Amps =     No
	Print Pair Ener =     No
	Local CC        =     No
	SCS-MP2         =     False
	SCSN-MP2        =     False
	SCS-CCSD        =     False

	            Solving CC Amplitude Equations
	            ------------------------------
  Iter             Energy              RMS        T1Diag      D1Diag    New D1Diag
  ----     ---------------------    ---------   ----------  ----------  ----------
     0        -0.274514295576227    0.000e+00    0.013430    0.000000    0.000000
     1        -0.263908577066656    1.106e-01    0.031103    0.000000    0.000000
     2        -0.277753005130331    4.184e-02    0.034767    0.000000    0.000000
     3        -0.282899024880693    3.490e-02    0.046111    0.000000    0.000000
     4        -0.283881381200633    1.811e-02    0.054370    0.000000    0.000000
     5        -0.284747225231398    1.217e-02    0.061801    0.000000    0.000000
     6        -0.284789644869134    5.881e-03    0.065648    0.000000    0.000000
     7        -0.284896575680797    2.111e-03    0.066557    0.000000    0.000000
     8        -0.284941189115900    1.031e-03    0.067250    0.000000    0.000000
     9        -0.284916221229743    4.000e-04    0.067255    0.000000    0.000000
    10        -0.284925702147494    2.038e-04    0.067307    0.000000    0.000000
    11        -0.284923593487144    1.095e-04    0.067370    0.000000    0.000000
    12        -0.284924906264599    5.568e-05    0.067361    0.000000    0.000000
    13        -0.284923310339673    1.501e-05    0.067367    0.000000    0.000000
    14        -0.284922709590267    3.891e-06    0.067369    0.000000    0.000000
    15        -0.284922821847456    1.391e-06    0.067369    0.000000    0.000000
    16        -0.284922910371533    6.346e-07    0.067370    0.000000    0.000000
    17        -0.284922919117712    1.131e-07    0.067370    0.000000    0.000000
    18        -0.284922925186176    4.440e-08    0.067370    0.000000    0.000000
    19        -0.284922922690111    1.657e-08    0.067370    0.000000    0.000000
    20        -0.284922922942907    6.397e-09    0.067370    0.000000    0.000000
    21        -0.284922922502003    3.100e-09    0.067370    0.000000    0.000000
    22        -0.284922922414596    1.423e-09    0.067370    0.000000    0.000000
    23        -0.284922922402801    5.478e-10    0.067370    0.000000    0.000000
    24        -0.284922922357804    3.242e-10    0.067370    0.000000    0.000000
    25        -0.284922922362359    1.398e-10    0.067370    0.000000    0.000000
    26        -0.284922922363491    7.330e-11    0.067370    0.000000    0.000000

	Iterations converged.


	Largest TIA Amplitudes:
	          5  11        -0.0353828668
	          6  16        -0.0353828668
	          5  12        -0.0248789273
	          6  17        -0.0248789273
	          5  14        -0.0239951936
	          6  19        -0.0239951936
	          4   1         0.0179530798
	          4   3         0.0164691632
	          4   0        -0.0113429351
	          5  13         0.0097034086

	Largest Tia Amplitudes:
	          3   0        -0.2197999607
	          4  12         0.0352135231
	          5  17         0.0352135231
	          3   2         0.0219359864
	          4  14         0.0185864688
	          5  19         0.0185864688
	          2   0         0.0145613693
	          3   1         0.0136676962
	          4  15         0.0107724477
	          5  20         0.0107724477

	Largest TIJAB Amplitudes:
	  6   5  16  11        -0.0345988968
	  5   4  11   3        -0.0226926753
	  6   4  16   3        -0.0226926753
	  6   5  17  12        -0.0172561361
	  6   5   9   4        -0.0164439324
	  5   3  12   1         0.0147258171
	  6   3  17   1         0.0147258171
	  6   5  16  13        -0.0114044357
	  6   5  18  11        -0.0114044357
	  5   4  13   3        -0.0113075813

	Largest Tijab Amplitudes:
	  4   3  12   0        -0.0383395937
	  5   3  17   0        -0.0383395937
	  5   4  17  12        -0.0367707958
	  5   4  18  13        -0.0148992497
	  5   4  10   5         0.0147264946
	  4   3  14   0        -0.0136504580
	  5   3  19   0        -0.0136504580
	  5   4  17  14        -0.0130977056
	  5   4  19  12        -0.0130977056
	  5   4  19  14        -0.0130893483

	Largest TIjAb Amplitudes:
	  5   4  11  12        -0.1034066063
	  6   5  16  17        -0.1034066063
	  5   3  11   0        -0.0804563486
	  6   3  16   0        -0.0804563486
	  5   5  11  17        -0.0611850844
	  6   4  16  12        -0.0611850844
	  3   4  11   0         0.0596578083
	  3   5  16   0         0.0596578083
	  3   3  11  12         0.0484330185
	  3   3  16  17         0.0484330185

	SCF energy       (chkpt)              =  -92.195556606168793
	Reference energy (file100)            =  -92.195556606168822

	Opposite-spin MP2 correlation energy  =    0.000000000000000
	Same-spin MP2 correlation energy      =    0.000000000000000
	MP2 correlation energy                =   -0.274405308126502
      * MP2 total energy                      =  -92.469961914295325

	Opposite-spin CCSD correlation energy =    0.000000000000000
	Same-spin CCSD correlation energy     =    0.000000000000000
	CCSD correlation energy               =   -0.284922922363491
      * CCSD total energy                     =  -92.480479528532314


*** tstop() called on lawn-143-215-103-161.lawn.gatech.edu at Fri Apr 27 14:11:44 2012
Module time:
	user time   =       1.86 seconds =       0.03 minutes
	system time =       1.02 seconds =       0.02 minutes
	total time  =          7 seconds =       0.12 minutes
Total time:
	user time   =       2.13 seconds =       0.04 minutes
	system time =       1.14 seconds =       0.02 minutes
	total time  =          8 seconds =       0.13 minutes

*** tstart() called on lawn-143-215-103-161.lawn.gatech.edu
*** at Fri Apr 27 14:11:44 2012

			**************************
			*                        *
			*        CCTRIPLES       *
			*                        *
			**************************


	Wave function   =    CCSD_T
	Reference wfn   =    ROHF changed to UHF for Semicanonical Orbitals

	Nuclear Rep. energy (chkpt)   =   18.915270434706382
	SCF energy          (chkpt)   =  -92.195556606168793
	Reference energy    (file100) =  -92.195556606168822
	CCSD energy         (file100) =   -0.284922922363491
	Total CCSD energy   (file100) =  -92.480479528532314

	Number of ijk index combinations:
	Spin Case AAA: 35
	Spin Case BBB: 20
	Spin Case AAB: 126
	Spin Case ABB: 105
	AAA (T) energy                =   -0.000198637636498
	BBB (T) energy                =   -0.000177305577864
	AAB (T) energy                =   -0.007197928454976
	ABB (T) energy                =   -0.006489164118846
	(T) energy                    =   -0.014063035788184
      * CCSD(T) total energy          =  -92.494542564320497


*** tstop() called on lawn-143-215-103-161.lawn.gatech.edu at Fri Apr 27 14:11:45 2012
Module time:
	user time   =       0.39 seconds =       0.01 minutes
	system time =       0.40 seconds =       0.01 minutes
	total time  =          1 seconds =       0.02 minutes
Total time:
	user time   =       2.52 seconds =       0.04 minutes
	system time =       1.54 seconds =       0.03 minutes
	total time  =          9 seconds =       0.15 minutes

*** PSI4 exiting successfully. Buy a developer a beer!
