    -----------------------------------------------------------------------
          PSI4: An Open-Source Ab Initio Electronic Structure Package
                              PSI 4.0.0-beta1 Driver

               Git: Rev 8268e5ba0276eef671d5bc4a44cf66fa46407463

    J. M. Turney, A. C. Simmonett, R. M. Parrish, E. G. Hohenstein,
    F. A. Evangelista, J. T. Fermann, B. J. Mintz, L. A. Burns, J. J. Wilke,
    M. L. Abrams, N. J. Russ, M. L. Leininger, C. L. Janssen, E. T. Seidl,
    W. D. Allen, H. F. Schaefer, R. A. King, E. F. Valeev, C. D. Sherrill,
    and T. D. Crawford, WIREs Comput. Mol. Sci., (2011) (doi: 10.1002/wcms.93)

                         Additional Contributions by
    A. E. DePrince, M. Saitow, U. Bozkaya, A. Yu. Sokolov
    -----------------------------------------------------------------------


    Using LocalCommunicator (Number of processes = 1)

    Memory level set to 256.000 MB

  ==> Input File <==

--------------------------------------------------------------------------
#! 6-31G** H2O CCSD optimization by energies, with Z-Matrix input

memory 250 mb

molecule h2o {
    o
    h 1 0.97
    h 1 0.97 2 103.0
}

set globals {
  basis 6-31G**

  r_convergence 10
  e_convergence 10
  d_convergence 10
}

optimize('ccsd', dertype=0)

refnuc   =  9.166137300098260  #TEST
refscf   = -76.02293995043653  #TEST
refccsd  = -0.208238532935749  #TEST
reftotal = -76.2311784833722   #TEST

compare_values(refnuc,   h2o.nuclear_repulsion_energy(),          3, "Nuclear repulsion energy") #TEST
compare_values(refscf,   get_variable("SCF total energy"),        5, "SCF energy")               #TEST
compare_values(refccsd,  get_variable("CCSD correlation energy"), 4, "CCSD contribution")        #TEST
compare_values(reftotal, get_variable("Current energy"),          7, "Total energy")             #TEST
--------------------------------------------------------------------------

  Memory set to 250.000 MiB by Python script.

-------------------------------------------------------------

  Using finite-differences of energies to determine gradients (fd_geoms_1_0).
	Generating geometries for use with 3-point formula.
	Displacement size will be 5.00e-03.
	Number of atoms is 3.
	Number of symmetric SALC's is 2.
	Number of displacements (including reference) is 5.

-------------------------------------------------------------

  //>>>>>>>>>>>>>>>>>>>>>>>>>>>>>>>>>>>//
  //    Loading displacement 1 of 5    //
  //<<<<<<<<<<<<<<<<<<<<<<<<<<<<<<<<<<<//

*** tstart() called on lawn-143-215-103-161.lawn.gatech.edu
*** at Fri Apr 27 14:07:23 2012

	There are an even number of electrons - assuming singlet.
	Specify the multiplicity with the MULTP option in the
	input if this is incorrect


         ---------------------------------------------------------
                                   SCF
            by Justin Turney, Rob Parrish, and Andy Simmonett
                              RHF Reference
                        1 Threads,    250 MiB Core
         ---------------------------------------------------------

  ==> Geometry <==

    Molecular point group: c2v

    Geometry (in Angstrom), charge = 0, multiplicity = 1:

       Center              X                  Y                   Z       
    ------------   -----------------  -----------------  -----------------
           O          0.000000000000     0.000000000000    -0.067799909009
           H          0.000000000000    -0.759129912147     0.538016878581
           H          0.000000000000     0.759129912147     0.538016878581

  Running in c2v symmetry.

  Nuclear repulsion =    9.066163073103997

  Charge       = 0
  Multiplicity = 1
  Electrons    = 10
  Nalpha       = 5
  Nbeta        = 5

  ==> Algorithm <==

  SCF Algorithm Type is PK.
  DIIS enabled.
  MOM disabled.
  Fractional occupation disabled.
  Guess Type is CORE.
  Energy threshold   = 1.00e-10
  Density threshold  = 1.00e-10
  Integral threshold = 0.00e+00

  ==> Primary Basis <==

  Basis Set: 6-31G**
    Number of shells: 12
    Number of basis function: 25
    Number of Cartesian functions: 25
    Spherical Harmonics?: false
    Max angular momentum: 2

  ==> Pre-Iterations <==

  Minimum eigenvalue in the overlap matrix is 2.2347906928E-02.
  Using Symmetric Orthogonalization.
  SCF Guess: Core (One-Electron) Hamiltonian.

  Initial RHF energy:   -58.67927277956242

   -------------------------------------------------------
    Irrep   Nso     Nmo     Nalpha   Nbeta   Ndocc  Nsocc
   -------------------------------------------------------
     A1        12      12       3       3       3       0
     A2         2       2       0       0       0       0
     B1         4       4       1       1       1       0
     B2         7       7       1       1       1       0
   -------------------------------------------------------
    Total      25      25       5       5       5       0
   -------------------------------------------------------

  ==> Integral Setup <==

 MINTS: Wrapper to libmints.
   by Justin Turney

   Calculation information:
      Number of atoms:                   3
      Number of AO shells:              12
      Number of SO shells:               9
      Number of primitives:             25
      Number of atomic orbitals:        25
      Number of basis functions:        25

      Number of irreps:                  4
      Number of functions per irrep: [  12    2    4    7 ]

      Overlap, kinetic, potential, dipole, and quadrupole integrals
        stored in file 35.

      Computing two-electron integrals...done
      Computed 13617 non-zero two-electron integrals.
        Stored in file 33.

  ==> Iterations <==

                        Total Energy        Delta E     Density RMS

   @RHF iter   1:   -68.29678760739567   -9.61751e+00   0.00000e+00 
	Occupation by irrep:
	         A1    A2    B1    B2 
	DOCC [     4,    0,    0,    1 ]

   @RHF iter   2:   -71.40035542806041   -3.10357e+00   5.20756e-01 DIIS
	Occupation by irrep:
	         A1    A2    B1    B2 
	DOCC [     3,    0,    1,    1 ]

   @RHF iter   3:   -75.76839158747306   -4.36804e+00   4.94801e-01 DIIS
   @RHF iter   4:   -76.00447654921389   -2.36085e-01   1.70778e-02 DIIS
   @RHF iter   5:   -76.02142111855916   -1.69446e-02   7.75736e-03 DIIS
   @RHF iter   6:   -76.02180581342884   -3.84695e-04   1.23173e-03 DIIS
   @RHF iter   7:   -76.02184431140171   -3.84980e-05   5.23967e-04 DIIS
   @RHF iter   8:   -76.02184549621391   -1.18481e-06   8.35157e-05 DIIS
   @RHF iter   9:   -76.02184556933284   -7.31189e-08   2.43694e-05 DIIS
   @RHF iter  10:   -76.02184557107303   -1.74019e-09   3.85010e-06 DIIS
   @RHF iter  11:   -76.02184557108052   -7.48912e-12   1.90823e-07 DIIS
   @RHF iter  12:   -76.02184557108085   -3.26850e-13   3.82888e-08 DIIS
   @RHF iter  13:   -76.02184557108086   -1.42109e-14   6.48460e-09 DIIS
   @RHF iter  14:   -76.02184557108083    2.84217e-14   6.27905e-10 DIIS

  ==> Post-Iterations <==

	Orbital Energies (a.u.)
	-----------------------

	Doubly Occupied:                                                      

	   1A1   -20.564080     2A1    -1.334668     1B2    -0.692889  
	   3A1    -0.569698     1B1    -0.496888  

	Virtual:                                                              

	   4A1     0.208855     2B2     0.300831     3B2     0.991803  
	   5A1     1.080447     6A1     1.130964     2B1     1.168569  
	   4B2     1.294467     7A1     1.418944     8A1     1.804105  
	   1A2     1.805836     3B1     1.918728     9A1     2.553188  
	   5B2     2.571057     6B2     2.776019     2A2     2.953258  
	   4B1     2.984804    10A1     3.346823    11A1     3.678515  
	   7B2     3.911983    12A1     4.092131  

	Final Occupation by Irrep:
	         A1    A2    B1    B2 
	DOCC [     3,    0,    1,    1 ]

  Energy converged.

  @RHF Final Energy:   -76.02184557108083

   => Energetics <=

    Nuclear Repulsion Energy =          9.0661630731039970
    One-Electron Energy =            -122.8595707752655528
    Two-Electron Energy =              37.7715621310807208
    DFT Functional Energy =             0.0000000000000000
    Empirical Dispersion Energy =       0.0000000000000000
    Total Energy =                    -76.0218455710808314

  ==> Properties <==

  Nuclear Dipole Moment: (a.u.)
     X:     0.0000      Y:     0.0000      Z:     1.0084

  Electronic Dipole Moment: (a.u.)
     X:     0.0000      Y:     0.0000      Z:    -0.1332

  Dipole Moment: (a.u.)
     X:     0.0000      Y:     0.0000      Z:     0.8752     Total:     0.8752

  Dipole Moment: (Debye)
     X:     0.0000      Y:     0.0000      Z:     2.2246     Total:     2.2246


  Saving occupied orbitals to File 180.

*** tstop() called on lawn-143-215-103-161.lawn.gatech.edu at Fri Apr 27 14:07:23 2012
Module time:
	user time   =       0.06 seconds =       0.00 minutes
	system time =       0.01 seconds =       0.00 minutes
	total time  =          0 seconds =       0.00 minutes
Total time:
	user time   =       0.06 seconds =       0.00 minutes
	system time =       0.01 seconds =       0.00 minutes
	total time  =          0 seconds =       0.00 minutes

*** tstart() called on lawn-143-215-103-161.lawn.gatech.edu
*** at Fri Apr 27 14:07:23 2012


	**************************************************
	* TRANSQT2: Program to transform integrals from  *
	*           the SO basis to the MO basis.        *
	*                                                *
	*            Daniel, David, & Justin             *
	**************************************************


	Input parameters:
	-----------------
	Wave function   =	CCSD
	Backtransform   =	No
	Print Level     =	1
	Print TEIs      =	No
	Reference wfn   =	RHF
	Derivative      =	None
	Delete TEI File =	Yes
	Memory (Mbytes) =	250.0
	Cache Level     =	2
	Cache Type      =	LRU
	Chkpt Parameters:
	--------------------
	Number of irreps     = 4
	Number of SOs        = 25
	Number of MOs        = 25
	Number of active MOs = 25

	Label	# SOs	# FZDC	# DOCC	# SOCC	# VIRT	# FZVR
	-----	-----	------	------	------	------	------
	 A1	   12	    0	    3	    0	    9	    0
	 A2	   2	    0	    0	    0	    2	    0
	 B1	   4	    0	    1	    0	    3	    0
	 B2	   7	    0	    1	    0	    6	    0

	Nuclear Rep. energy (chkpt) =      9.06616307310400
	SCF energy          (chkpt) =    -76.02184557108083

	Presorting SO-basis two-electron integrals.
	Sorting File: SO Ints (pq,rs) nbuckets = 1
	Frozen-core energy =    0.000000000000000
	Starting first half-transformation.
	Sorting half-transformed integrals.
	Starting second half-transformation.
	Two-electron integral transformation complete.

*** tstop() called on lawn-143-215-103-161.lawn.gatech.edu at Fri Apr 27 14:07:23 2012
Module time:
	user time   =       0.01 seconds =       0.00 minutes
	system time =       0.01 seconds =       0.00 minutes
	total time  =          0 seconds =       0.00 minutes
Total time:
	user time   =       0.07 seconds =       0.00 minutes
	system time =       0.02 seconds =       0.00 minutes
	total time  =          0 seconds =       0.00 minutes

*** tstart() called on lawn-143-215-103-161.lawn.gatech.edu
*** at Fri Apr 27 14:07:23 2012


			**************************
			*                        *
			*         CCSORT         *
			*                        *
			**************************


	Input parameters:
	-----------------
	Wave function   =	CCSD
	Reference wfn   =	RHF
	Derivative      =	None
	Memory (Mbytes) =	250.0
	AO Basis        =	NONE
	Make (ab|cd)    =	True
	Make unpacked (ab|cd) =	False
	Cache Level     =	2
	Cache Type      =	LRU
	Local CC        =     No


	Chkpt Parameters:
	--------------------
	Number of irreps     = 4
	Number of MOs        = 25
	Number of active MOs = 25

	Label	# MOs	# FZDC	# DOCC	# SOCC	# VIRT	# FZVR
	-----	-----	------	------	------	------	------
	 A1	   12	    0	    3	    0	    9	    0
	 A2	   2	    0	    0	    0	    2	    0
	 B1	   4	    0	    1	    0	    3	    0
	 B2	   7	    0	    1	    0	    6	    0

	Nuclear Rep. energy (chkpt) =      9.06616307310400
	SCF energy          (chkpt) =    -76.02184557108083

	Size of irrep 0 of <ab|cd> integrals:      0.017 (MW) /      0.135 (MB)
	Size of irrep 1 of <ab|cd> integrals:      0.005 (MW) /      0.041 (MB)
	Size of irrep 2 of <ab|cd> integrals:      0.006 (MW) /      0.049 (MB)
	Size of irrep 3 of <ab|cd> integrals:      0.014 (MW) /      0.115 (MB)
	Total:                                     0.043 (MW) /      0.341 (MB)

	Size of irrep 0 of <ia|bc> integrals:      0.005 (MW) /      0.037 (MB)
	Size of irrep 1 of <ia|bc> integrals:      0.001 (MW) /      0.009 (MB)
	Size of irrep 2 of <ia|bc> integrals:      0.002 (MW) /      0.012 (MB)
	Size of irrep 3 of <ia|bc> integrals:      0.003 (MW) /      0.028 (MB)
	Total:                                     0.011 (MW) /      0.086 (MB)

	Size of irrep 0 of tijab amplitudes:       0.001 (MW) /      0.011 (MB)
	Size of irrep 1 of tijab amplitudes:       0.000 (MW) /      0.001 (MB)
	Size of irrep 2 of tijab amplitudes:       0.000 (MW) /      0.004 (MB)
	Size of irrep 3 of tijab amplitudes:       0.001 (MW) /      0.006 (MB)
	Total:                                     0.003 (MW) /      0.022 (MB)


	Sorting File: A <ij|kl> nbuckets = 1
	Sorting File: B(+) <ab|cd> nbuckets = 1
	Sorting File: C <ia|jb> nbuckets = 1
	Sorting File: D <ij|ab> nbuckets = 1
	Sorting File: E <ai|jk> nbuckets = 1
	Sorting File: F <ia|bc> nbuckets = 1
	One-electron energy          =   -122.85957077632776
	Two-electron (AA) energy     =     14.41219132953048
	Two-electron (BB) energy     =     14.41219132953048
	Two-electron (AB) energy     =     23.35937080261244
	Two-electron energy          =     37.77156213214292
	Frozen-core energy (transqt) =      0.00000000000000
	Reference energy             =    -76.02184557108085

*** tstop() called on lawn-143-215-103-161.lawn.gatech.edu at Fri Apr 27 14:07:23 2012
Module time:
	user time   =       0.02 seconds =       0.00 minutes
	system time =       0.03 seconds =       0.00 minutes
	total time  =          0 seconds =       0.00 minutes
Total time:
	user time   =       0.09 seconds =       0.00 minutes
	system time =       0.05 seconds =       0.00 minutes
	total time  =          0 seconds =       0.00 minutes

*** tstart() called on lawn-143-215-103-161.lawn.gatech.edu
*** at Fri Apr 27 14:07:23 2012

			**************************
			*                        *
			*        CCENERGY        *
			*                        *
			**************************

	Nuclear Rep. energy (chkpt)   =    9.066163073103997
	SCF energy          (chkpt)   =  -76.021845571080831
	Reference energy    (file100) =  -76.021845571080846

	Input parameters:
	-----------------
	Wave function   =     CCSD
	Reference wfn   =     RHF
	Memory (Mbytes) =     250.0
	Maxiter         =     50
	Convergence     =     1.0e-10
	Restart         =     No
	DIIS            =     Yes
	AO Basis        =     NONE
	ABCD            =     NEW
	Cache Level     =     2
	Cache Type      =     LOW
	Print Level     =     1
	Num. of threads =     1
	# Amps to Print =     10
	Print MP2 Amps? =     No
	Analyze T2 Amps =     No
	Print Pair Ener =     No
	Local CC        =     No
	SCS-MP2         =     False
	SCSN-MP2        =     False
	SCS-CCSD        =     False

	            Solving CC Amplitude Equations
	            ------------------------------
  Iter             Energy              RMS        T1Diag      D1Diag    New D1Diag
  ----     ---------------------    ---------   ----------  ----------  ----------
     0        -0.200388162163221    0.000e+00    0.000000    0.000000    0.000000
     1        -0.204609101922509    2.739e-02    0.004521    0.008935    0.008935
     2        -0.208551174838847    9.828e-03    0.005176    0.010368    0.010368
     3        -0.209076125493536    2.810e-03    0.005712    0.011961    0.011961
     4        -0.209080390181708    6.501e-04    0.005766    0.012275    0.012275
     5        -0.209095351773365    2.066e-04    0.005805    0.012470    0.012470
     6        -0.209091420568987    6.489e-05    0.005819    0.012540    0.012540
     7        -0.209090863074089    1.573e-05    0.005822    0.012559    0.012559
     8        -0.209090842473881    2.956e-06    0.005823    0.012562    0.012562
     9        -0.209090765151425    7.137e-07    0.005823    0.012562    0.012562
    10        -0.209090785546824    1.523e-07    0.005823    0.012562    0.012562
    11        -0.209090783883250    2.971e-08    0.005823    0.012562    0.012562
    12        -0.209090784511883    4.829e-09    0.005823    0.012562    0.012562
    13        -0.209090784400411    1.075e-09    0.005823    0.012562    0.012562
    14        -0.209090784391318    2.004e-10    0.005823    0.012562    0.012562
    15        -0.209090784389272    5.247e-11    0.005823    0.012562    0.012562

	Iterations converged.


	Largest TIA Amplitudes:
	          2   0         0.0108941952
	          3  11        -0.0066688404
	          4  14        -0.0063071083
	          4  18         0.0054122094
	          4  16         0.0049529409
	          1   2         0.0043677695
	          2   5         0.0040848781
	          1   0        -0.0026371640
	          1   7         0.0023343488
	          2   1         0.0022196724

	Largest TIjAb Amplitudes:
	  3   3  11  11        -0.0519008866
	  4   4  14  14        -0.0396166322
	  2   2   2   2        -0.0298746174
	  4   4  15  15        -0.0287604736
	  2   3   2  11         0.0252356149
	  3   2  11   2         0.0252356149
	  3   4  11  16        -0.0248407843
	  4   3  16  11        -0.0248407843
	  4   4  16  16        -0.0246281400
	  3   4  11  14        -0.0244876382

	SCF energy       (chkpt)              =  -76.021845571080831
	Reference energy (file100)            =  -76.021845571080846

	Opposite-spin MP2 correlation energy  =   -0.150037725351076
	Same-spin MP2 correlation energy      =   -0.050350436812145
	MP2 correlation energy                =   -0.200388162163221
      * MP2 total energy                      =  -76.222233733244067

	Opposite-spin CCSD correlation energy =   -0.164495867941180
	Same-spin CCSD correlation energy     =   -0.044594916447799
	CCSD correlation energy               =   -0.209090784389272
      * CCSD total energy                     =  -76.230936355470121


*** tstop() called on lawn-143-215-103-161.lawn.gatech.edu at Fri Apr 27 14:07:24 2012
Module time:
	user time   =       0.34 seconds =       0.01 minutes
	system time =       0.41 seconds =       0.01 minutes
	total time  =          1 seconds =       0.02 minutes
Total time:
	user time   =       0.44 seconds =       0.01 minutes
	system time =       0.47 seconds =       0.01 minutes
	total time  =          1 seconds =       0.02 minutes

  //>>>>>>>>>>>>>>>>>>>>>>>>>>>>>>>>>>>//
  //    Loading displacement 2 of 5    //
  //<<<<<<<<<<<<<<<<<<<<<<<<<<<<<<<<<<<//

*** tstart() called on lawn-143-215-103-161.lawn.gatech.edu
*** at Fri Apr 27 14:07:24 2012

	There are an even number of electrons - assuming singlet.
	Specify the multiplicity with the MULTP option in the
	input if this is incorrect


         ---------------------------------------------------------
                                   SCF
            by Justin Turney, Rob Parrish, and Andy Simmonett
                              RHF Reference
                        1 Threads,    250 MiB Core
         ---------------------------------------------------------

  ==> Geometry <==

    Molecular point group: c2v

    Geometry (in Angstrom), charge = 0, multiplicity = 1:

       Center              X                  Y                   Z       
    ------------   -----------------  -----------------  -----------------
           O          0.000000000000     0.000000000000    -0.067357265529
           H          0.000000000000    -0.759129912147     0.534504341957
           H          0.000000000000     0.759129912147     0.534504341957

  Running in c2v symmetry.

  Nuclear repulsion =    9.088319132346149

  Charge       = 0
  Multiplicity = 1
  Electrons    = 10
  Nalpha       = 5
  Nbeta        = 5

  ==> Algorithm <==

  SCF Algorithm Type is PK.
  DIIS enabled.
  MOM disabled.
  Fractional occupation disabled.
  Guess Type is CORE.
  Energy threshold   = 1.00e-10
  Density threshold  = 1.00e-10
  Integral threshold = 0.00e+00

  ==> Primary Basis <==

  Basis Set: 6-31G**
    Number of shells: 12
    Number of basis function: 25
    Number of Cartesian functions: 25
    Spherical Harmonics?: false
    Max angular momentum: 2

  ==> Pre-Iterations <==

  Minimum eigenvalue in the overlap matrix is 2.2269509831E-02.
  Using Symmetric Orthogonalization.
  SCF Guess: Core (One-Electron) Hamiltonian.

  Initial RHF energy:   -58.67298252268031

   -------------------------------------------------------
    Irrep   Nso     Nmo     Nalpha   Nbeta   Ndocc  Nsocc
   -------------------------------------------------------
     A1        12      12       3       3       3       0
     A2         2       2       0       0       0       0
     B1         4       4       1       1       1       0
     B2         7       7       1       1       1       0
   -------------------------------------------------------
    Total      25      25       5       5       5       0
   -------------------------------------------------------

  ==> Integral Setup <==

 MINTS: Wrapper to libmints.
   by Justin Turney

   Calculation information:
      Number of atoms:                   3
      Number of AO shells:              12
      Number of SO shells:               9
      Number of primitives:             25
      Number of atomic orbitals:        25
      Number of basis functions:        25

      Number of irreps:                  4
      Number of functions per irrep: [  12    2    4    7 ]

      Overlap, kinetic, potential, dipole, and quadrupole integrals
        stored in file 35.

      Computing two-electron integrals...done
      Computed 13617 non-zero two-electron integrals.
        Stored in file 33.

  ==> Iterations <==

                        Total Energy        Delta E     Density RMS

   @RHF iter   1:   -68.29235823501617   -9.61938e+00   0.00000e+00 
	Occupation by irrep:
	         A1    A2    B1    B2 
	DOCC [     4,    0,    0,    1 ]

   @RHF iter   2:   -71.40392873523056   -3.11157e+00   5.22358e-01 DIIS
	Occupation by irrep:
	         A1    A2    B1    B2 
	DOCC [     3,    0,    1,    1 ]

   @RHF iter   3:   -75.76860004734306   -4.36467e+00   4.96480e-01 DIIS
   @RHF iter   4:   -76.00482946053404   -2.36229e-01   1.70898e-02 DIIS
   @RHF iter   5:   -76.02172387621330   -1.68944e-02   7.73872e-03 DIIS
   @RHF iter   6:   -76.02210423063775   -3.80354e-04   1.22814e-03 DIIS
   @RHF iter   7:   -76.02214210322842   -3.78726e-05   5.21389e-04 DIIS
   @RHF iter   8:   -76.02214325520546   -1.15198e-06   8.28350e-05 DIIS
   @RHF iter   9:   -76.02214332548625   -7.02808e-08   2.38978e-05 DIIS
   @RHF iter  10:   -76.02214332716331   -1.67705e-09   3.79873e-06 DIIS
   @RHF iter  11:   -76.02214332717003   -6.72173e-12   1.82099e-07 DIIS
   @RHF iter  12:   -76.02214332717033   -2.98428e-13   3.62114e-08 DIIS
   @RHF iter  13:   -76.02214332717033    0.00000e+00   6.32358e-09 DIIS
   @RHF iter  14:   -76.02214332717031    1.42109e-14   6.35982e-10 DIIS

  ==> Post-Iterations <==

	Orbital Energies (a.u.)
	-----------------------

	Doubly Occupied:                                                      

	   1A1   -20.563432     2A1    -1.335587     1B2    -0.694848  
	   3A1    -0.569393     1B1    -0.496900  

	Virtual:                                                              

	   4A1     0.209441     2B2     0.301547     3B2     0.994180  
	   5A1     1.081347     6A1     1.131299     2B1     1.168655  
	   4B2     1.294509     7A1     1.417802     1A2     1.805277  
	   8A1     1.807011     3B1     1.920126     9A1     2.556256  
	   5B2     2.571725     6B2     2.781501     2A2     2.958343  
	   4B1     2.985409    10A1     3.352596    11A1     3.683910  
	   7B2     3.914204    12A1     4.095169  

	Final Occupation by Irrep:
	         A1    A2    B1    B2 
	DOCC [     3,    0,    1,    1 ]

  Energy converged.

  @RHF Final Energy:   -76.02214332717031

   => Energetics <=

    Nuclear Repulsion Energy =          9.0883191323461485
    One-Electron Energy =            -122.9006035668952563
    Two-Electron Energy =              37.7901411073788012
    DFT Functional Energy =             0.0000000000000000
    Empirical Dispersion Energy =       0.0000000000000000
    Total Energy =                    -76.0221433271703120

  ==> Properties <==

  Nuclear Dipole Moment: (a.u.)
     X:     0.0000      Y:     0.0000      Z:     1.0018

  Electronic Dipole Moment: (a.u.)
     X:     0.0000      Y:     0.0000      Z:    -0.1298

  Dipole Moment: (a.u.)
     X:     0.0000      Y:     0.0000      Z:     0.8720     Total:     0.8720

  Dipole Moment: (Debye)
     X:     0.0000      Y:     0.0000      Z:     2.2165     Total:     2.2165


  Saving occupied orbitals to File 180.

*** tstop() called on lawn-143-215-103-161.lawn.gatech.edu at Fri Apr 27 14:07:24 2012
Module time:
	user time   =       0.06 seconds =       0.00 minutes
	system time =       0.01 seconds =       0.00 minutes
	total time  =          0 seconds =       0.00 minutes
Total time:
	user time   =       0.50 seconds =       0.01 minutes
	system time =       0.48 seconds =       0.01 minutes
	total time  =          1 seconds =       0.02 minutes

*** tstart() called on lawn-143-215-103-161.lawn.gatech.edu
*** at Fri Apr 27 14:07:24 2012


	**************************************************
	* TRANSQT2: Program to transform integrals from  *
	*           the SO basis to the MO basis.        *
	*                                                *
	*            Daniel, David, & Justin             *
	**************************************************


	Input parameters:
	-----------------
	Wave function   =	CCSD
	Backtransform   =	No
	Print Level     =	1
	Print TEIs      =	No
	Reference wfn   =	RHF
	Derivative      =	None
	Delete TEI File =	Yes
	Memory (Mbytes) =	250.0
	Cache Level     =	2
	Cache Type      =	LRU
	Chkpt Parameters:
	--------------------
	Number of irreps     = 4
	Number of SOs        = 25
	Number of MOs        = 25
	Number of active MOs = 25

	Label	# SOs	# FZDC	# DOCC	# SOCC	# VIRT	# FZVR
	-----	-----	------	------	------	------	------
	 A1	   12	    0	    3	    0	    9	    0
	 A2	   2	    0	    0	    0	    2	    0
	 B1	   4	    0	    1	    0	    3	    0
	 B2	   7	    0	    1	    0	    6	    0

	Nuclear Rep. energy (chkpt) =      9.08831913234615
	SCF energy          (chkpt) =    -76.02214332717031

	Presorting SO-basis two-electron integrals.
	Sorting File: SO Ints (pq,rs) nbuckets = 1
	Frozen-core energy =    0.000000000000000
	Starting first half-transformation.
	Sorting half-transformed integrals.
	Starting second half-transformation.
	Two-electron integral transformation complete.

*** tstop() called on lawn-143-215-103-161.lawn.gatech.edu at Fri Apr 27 14:07:24 2012
Module time:
	user time   =       0.01 seconds =       0.00 minutes
	system time =       0.01 seconds =       0.00 minutes
	total time  =          0 seconds =       0.00 minutes
Total time:
	user time   =       0.52 seconds =       0.01 minutes
	system time =       0.49 seconds =       0.01 minutes
	total time  =          1 seconds =       0.02 minutes

*** tstart() called on lawn-143-215-103-161.lawn.gatech.edu
*** at Fri Apr 27 14:07:24 2012


			**************************
			*                        *
			*         CCSORT         *
			*                        *
			**************************


	Input parameters:
	-----------------
	Wave function   =	CCSD
	Reference wfn   =	RHF
	Derivative      =	None
	Memory (Mbytes) =	250.0
	AO Basis        =	NONE
	Make (ab|cd)    =	True
	Make unpacked (ab|cd) =	False
	Cache Level     =	2
	Cache Type      =	LRU
	Local CC        =     No


	Chkpt Parameters:
	--------------------
	Number of irreps     = 4
	Number of MOs        = 25
	Number of active MOs = 25

	Label	# MOs	# FZDC	# DOCC	# SOCC	# VIRT	# FZVR
	-----	-----	------	------	------	------	------
	 A1	   12	    0	    3	    0	    9	    0
	 A2	   2	    0	    0	    0	    2	    0
	 B1	   4	    0	    1	    0	    3	    0
	 B2	   7	    0	    1	    0	    6	    0

	Nuclear Rep. energy (chkpt) =      9.08831913234615
	SCF energy          (chkpt) =    -76.02214332717031

	Size of irrep 0 of <ab|cd> integrals:      0.017 (MW) /      0.135 (MB)
	Size of irrep 1 of <ab|cd> integrals:      0.005 (MW) /      0.041 (MB)
	Size of irrep 2 of <ab|cd> integrals:      0.006 (MW) /      0.049 (MB)
	Size of irrep 3 of <ab|cd> integrals:      0.014 (MW) /      0.115 (MB)
	Total:                                     0.043 (MW) /      0.341 (MB)

	Size of irrep 0 of <ia|bc> integrals:      0.005 (MW) /      0.037 (MB)
	Size of irrep 1 of <ia|bc> integrals:      0.001 (MW) /      0.009 (MB)
	Size of irrep 2 of <ia|bc> integrals:      0.002 (MW) /      0.012 (MB)
	Size of irrep 3 of <ia|bc> integrals:      0.003 (MW) /      0.028 (MB)
	Total:                                     0.011 (MW) /      0.086 (MB)

	Size of irrep 0 of tijab amplitudes:       0.001 (MW) /      0.011 (MB)
	Size of irrep 1 of tijab amplitudes:       0.000 (MW) /      0.001 (MB)
	Size of irrep 2 of tijab amplitudes:       0.000 (MW) /      0.004 (MB)
	Size of irrep 3 of tijab amplitudes:       0.001 (MW) /      0.006 (MB)
	Total:                                     0.003 (MW) /      0.022 (MB)


	Sorting File: A <ij|kl> nbuckets = 1
	Sorting File: B(+) <ab|cd> nbuckets = 1
	Sorting File: C <ia|jb> nbuckets = 1
	Sorting File: D <ij|ab> nbuckets = 1
	Sorting File: E <ai|jk> nbuckets = 1
	Sorting File: F <ia|bc> nbuckets = 1
	One-electron energy          =   -122.90060356793357
	Two-electron (AA) energy     =     14.42013436895737
	Two-electron (BB) energy     =     14.42013436895737
	Two-electron (AB) energy     =     23.37000673945970
	Two-electron energy          =     37.79014110841707
	Frozen-core energy (transqt) =      0.00000000000000
	Reference energy             =    -76.02214332717035

*** tstop() called on lawn-143-215-103-161.lawn.gatech.edu at Fri Apr 27 14:07:24 2012
Module time:
	user time   =       0.02 seconds =       0.00 minutes
	system time =       0.03 seconds =       0.00 minutes
	total time  =          0 seconds =       0.00 minutes
Total time:
	user time   =       0.54 seconds =       0.01 minutes
	system time =       0.52 seconds =       0.01 minutes
	total time  =          1 seconds =       0.02 minutes

*** tstart() called on lawn-143-215-103-161.lawn.gatech.edu
*** at Fri Apr 27 14:07:24 2012

			**************************
			*                        *
			*        CCENERGY        *
			*                        *
			**************************

	Nuclear Rep. energy (chkpt)   =    9.088319132346149
	SCF energy          (chkpt)   =  -76.022143327170312
	Reference energy    (file100) =  -76.022143327170355

	Input parameters:
	-----------------
	Wave function   =     CCSD
	Reference wfn   =     RHF
	Memory (Mbytes) =     250.0
	Maxiter         =     50
	Convergence     =     1.0e-10
	Restart         =     No
	DIIS            =     Yes
	AO Basis        =     NONE
	ABCD            =     NEW
	Cache Level     =     2
	Cache Type      =     LOW
	Print Level     =     1
	Num. of threads =     1
	# Amps to Print =     10
	Print MP2 Amps? =     No
	Analyze T2 Amps =     No
	Print Pair Ener =     No
	Local CC        =     No
	SCS-MP2         =     False
	SCSN-MP2        =     False
	SCS-CCSD        =     False

	            Solving CC Amplitude Equations
	            ------------------------------
  Iter             Energy              RMS        T1Diag      D1Diag    New D1Diag
  ----     ---------------------    ---------   ----------  ----------  ----------
     0        -0.200181448069510    5.247e-11    0.000000    0.000000    0.000000
     1        -0.204440195769291    2.727e-02    0.004495    0.008872    0.008872
     2        -0.208359060542962    9.760e-03    0.005146    0.010299    0.010299
     3        -0.208876983744470    2.780e-03    0.005674    0.011872    0.011872
     4        -0.208881361704364    6.432e-04    0.005728    0.012182    0.012182
     5        -0.208896083124660    2.041e-04    0.005767    0.012375    0.012375
     6        -0.208892212967021    6.416e-05    0.005780    0.012445    0.012445
     7        -0.208891654901789    1.558e-05    0.005784    0.012464    0.012464
     8        -0.208891637177394    2.918e-06    0.005784    0.012466    0.012466
     9        -0.208891560786344    7.005e-07    0.005784    0.012466    0.012466
    10        -0.208891580834428    1.491e-07    0.005784    0.012466    0.012466
    11        -0.208891579223131    2.910e-08    0.005784    0.012466    0.012466
    12        -0.208891579834093    4.725e-09    0.005784    0.012466    0.012466
    13        -0.208891579724681    1.050e-09    0.005784    0.012466    0.012466
    14        -0.208891579715653    1.950e-10    0.005784    0.012466    0.012466
    15        -0.208891579713696    5.094e-11    0.005784    0.012466    0.012466

	Iterations converged.


	Largest TIA Amplitudes:
	          2   0         0.0107916805
	          3  11        -0.0066391006
	          4  14        -0.0062868829
	          4  18         0.0053692640
	          4  16         0.0048702022
	          1   2         0.0043576387
	          2   5         0.0040511441
	          1   0        -0.0027079150
	          1   7         0.0023449408
	          2   1         0.0022258610

	Largest TIjAb Amplitudes:
	  3   3  11  11        -0.0518971479
	  4   4  14  14        -0.0392102521
	  2   2   2   2        -0.0299154943
	  4   4  15  15        -0.0287421037
	  2   3   2  11         0.0252541682
	  3   2  11   2         0.0252541682
	  3   4  11  16        -0.0248231664
	  4   3  16  11        -0.0248231664
	  4   4  16  16        -0.0246230027
	  3   4  11  14        -0.0244220315

	SCF energy       (chkpt)              =  -76.022143327170312
	Reference energy (file100)            =  -76.022143327170355

	Opposite-spin MP2 correlation energy  =   -0.149872525228169
	Same-spin MP2 correlation energy      =   -0.050308922841342
	MP2 correlation energy                =   -0.200181448069510
      * MP2 total energy                      =  -76.222324775239869

	Opposite-spin CCSD correlation energy =   -0.164304658450609
	Same-spin CCSD correlation energy     =   -0.044586921262810
	CCSD correlation energy               =   -0.208891579713696
      * CCSD total energy                     =  -76.231034906884048


*** tstop() called on lawn-143-215-103-161.lawn.gatech.edu at Fri Apr 27 14:07:27 2012
Module time:
	user time   =       0.35 seconds =       0.01 minutes
	system time =       0.42 seconds =       0.01 minutes
	total time  =          3 seconds =       0.05 minutes
Total time:
	user time   =       0.89 seconds =       0.01 minutes
	system time =       0.94 seconds =       0.02 minutes
	total time  =          4 seconds =       0.07 minutes

  //>>>>>>>>>>>>>>>>>>>>>>>>>>>>>>>>>>>//
  //    Loading displacement 3 of 5    //
  //<<<<<<<<<<<<<<<<<<<<<<<<<<<<<<<<<<<//

*** tstart() called on lawn-143-215-103-161.lawn.gatech.edu
*** at Fri Apr 27 14:07:27 2012

	There are an even number of electrons - assuming singlet.
	Specify the multiplicity with the MULTP option in the
	input if this is incorrect


         ---------------------------------------------------------
                                   SCF
            by Justin Turney, Rob Parrish, and Andy Simmonett
                              RHF Reference
                        1 Threads,    250 MiB Core
         ---------------------------------------------------------

  ==> Geometry <==

    Molecular point group: c2v

    Geometry (in Angstrom), charge = 0, multiplicity = 1:

       Center              X                  Y                   Z       
    ------------   -----------------  -----------------  -----------------
           O          0.000000000000     0.000000000000    -0.067578587269
           H          0.000000000000    -0.760993558771     0.536260610269
           H          0.000000000000     0.760993558771     0.536260610269

  Running in c2v symmetry.

  Nuclear repulsion =    9.063273491186603

  Charge       = 0
  Multiplicity = 1
  Electrons    = 10
  Nalpha       = 5
  Nbeta        = 5

  ==> Algorithm <==

  SCF Algorithm Type is PK.
  DIIS enabled.
  MOM disabled.
  Fractional occupation disabled.
  Guess Type is CORE.
  Energy threshold   = 1.00e-10
  Density threshold  = 1.00e-10
  Integral threshold = 0.00e+00

  ==> Primary Basis <==

  Basis Set: 6-31G**
    Number of shells: 12
    Number of basis function: 25
    Number of Cartesian functions: 25
    Spherical Harmonics?: false
    Max angular momentum: 2

  ==> Pre-Iterations <==

  Minimum eigenvalue in the overlap matrix is 2.2362643987E-02.
  Using Symmetric Orthogonalization.
  SCF Guess: Core (One-Electron) Hamiltonian.

  Initial RHF energy:   -58.68051151385771

   -------------------------------------------------------
    Irrep   Nso     Nmo     Nalpha   Nbeta   Ndocc  Nsocc
   -------------------------------------------------------
     A1        12      12       3       3       3       0
     A2         2       2       0       0       0       0
     B1         4       4       1       1       1       0
     B2         7       7       1       1       1       0
   -------------------------------------------------------
    Total      25      25       5       5       5       0
   -------------------------------------------------------

  ==> Integral Setup <==

 MINTS: Wrapper to libmints.
   by Justin Turney

   Calculation information:
      Number of atoms:                   3
      Number of AO shells:              12
      Number of SO shells:               9
      Number of primitives:             25
      Number of atomic orbitals:        25
      Number of basis functions:        25

      Number of irreps:                  4
      Number of functions per irrep: [  12    2    4    7 ]

      Overlap, kinetic, potential, dipole, and quadrupole integrals
        stored in file 35.

      Computing two-electron integrals...done
      Computed 13617 non-zero two-electron integrals.
        Stored in file 33.

  ==> Iterations <==

                        Total Energy        Delta E     Density RMS

   @RHF iter   1:   -68.29812872334858   -9.61762e+00   0.00000e+00 
	Occupation by irrep:
	         A1    A2    B1    B2 
	DOCC [     4,    0,    0,    1 ]

   @RHF iter   2:   -71.40330902394305   -3.10518e+00   5.20690e-01 DIIS
	Occupation by irrep:
	         A1    A2    B1    B2 
	DOCC [     3,    0,    1,    1 ]

   @RHF iter   3:   -75.76898026462410   -4.36567e+00   4.94744e-01 DIIS
   @RHF iter   4:   -76.00454136428769   -2.35561e-01   1.70613e-02 DIIS
   @RHF iter   5:   -76.02143137190312   -1.68900e-02   7.74648e-03 DIIS
   @RHF iter   6:   -76.02181554747993   -3.84176e-04   1.23242e-03 DIIS
   @RHF iter   7:   -76.02185405903919   -3.85116e-05   5.25187e-04 DIIS
   @RHF iter   8:   -76.02185524347939   -1.18444e-06   8.37039e-05 DIIS
   @RHF iter   9:   -76.02185531612376   -7.26444e-08   2.43186e-05 DIIS
   @RHF iter  10:   -76.02185531785848   -1.73472e-09   3.84437e-06 DIIS
   @RHF iter  11:   -76.02185531786590   -7.41807e-12   1.89819e-07 DIIS
   @RHF iter  12:   -76.02185531786621   -3.12639e-13   3.79484e-08 DIIS
   @RHF iter  13:   -76.02185531786616    5.68434e-14   6.46558e-09 DIIS
   @RHF iter  14:   -76.02185531786617   -1.42109e-14   6.32938e-10 DIIS

  ==> Post-Iterations <==

	Orbital Energies (a.u.)
	-----------------------

	Doubly Occupied:                                                      

	   1A1   -20.563937     2A1    -1.334280     1B2    -0.693358  
	   3A1    -0.569002     1B1    -0.496741  

	Virtual:                                                              

	   4A1     0.208853     2B2     0.300806     3B2     0.992855  
	   5A1     1.079363     6A1     1.130964     2B1     1.168664  
	   4B2     1.294488     7A1     1.417588     1A2     1.805091  
	   8A1     1.806638     3B1     1.919834     9A1     2.552603  
	   5B2     2.568899     6B2     2.775644     2A2     2.954885  
	   4B1     2.982394    10A1     3.347278    11A1     3.678123  
	   7B2     3.910535    12A1     4.093320  

	Final Occupation by Irrep:
	         A1    A2    B1    B2 
	DOCC [     3,    0,    1,    1 ]

  Energy converged.

  @RHF Final Energy:   -76.02185531786617

   => Energetics <=

    Nuclear Repulsion Energy =          9.0632734911866031
    One-Electron Energy =            -122.8556211504836000
    Two-Electron Energy =              37.7704923414308240
    DFT Functional Energy =             0.0000000000000000
    Empirical Dispersion Energy =       0.0000000000000000
    Total Energy =                    -76.0218553178661693

  ==> Properties <==

  Nuclear Dipole Moment: (a.u.)
     X:     0.0000      Y:     0.0000      Z:     1.0051

  Electronic Dipole Moment: (a.u.)
     X:     0.0000      Y:     0.0000      Z:    -0.1320

  Dipole Moment: (a.u.)
     X:     0.0000      Y:     0.0000      Z:     0.8732     Total:     0.8732

  Dipole Moment: (Debye)
     X:     0.0000      Y:     0.0000      Z:     2.2194     Total:     2.2194


  Saving occupied orbitals to File 180.

*** tstop() called on lawn-143-215-103-161.lawn.gatech.edu at Fri Apr 27 14:07:27 2012
Module time:
	user time   =       0.07 seconds =       0.00 minutes
	system time =       0.01 seconds =       0.00 minutes
	total time  =          0 seconds =       0.00 minutes
Total time:
	user time   =       0.96 seconds =       0.02 minutes
	system time =       0.95 seconds =       0.02 minutes
	total time  =          4 seconds =       0.07 minutes

*** tstart() called on lawn-143-215-103-161.lawn.gatech.edu
*** at Fri Apr 27 14:07:27 2012


	**************************************************
	* TRANSQT2: Program to transform integrals from  *
	*           the SO basis to the MO basis.        *
	*                                                *
	*            Daniel, David, & Justin             *
	**************************************************


	Input parameters:
	-----------------
	Wave function   =	CCSD
	Backtransform   =	No
	Print Level     =	1
	Print TEIs      =	No
	Reference wfn   =	RHF
	Derivative      =	None
	Delete TEI File =	Yes
	Memory (Mbytes) =	250.0
	Cache Level     =	2
	Cache Type      =	LRU
	Chkpt Parameters:
	--------------------
	Number of irreps     = 4
	Number of SOs        = 25
	Number of MOs        = 25
	Number of active MOs = 25

	Label	# SOs	# FZDC	# DOCC	# SOCC	# VIRT	# FZVR
	-----	-----	------	------	------	------	------
	 A1	   12	    0	    3	    0	    9	    0
	 A2	   2	    0	    0	    0	    2	    0
	 B1	   4	    0	    1	    0	    3	    0
	 B2	   7	    0	    1	    0	    6	    0

	Nuclear Rep. energy (chkpt) =      9.06327349118660
	SCF energy          (chkpt) =    -76.02185531786617

	Presorting SO-basis two-electron integrals.
	Sorting File: SO Ints (pq,rs) nbuckets = 1
	Frozen-core energy =    0.000000000000000
	Starting first half-transformation.
	Sorting half-transformed integrals.
	Starting second half-transformation.
	Two-electron integral transformation complete.

*** tstop() called on lawn-143-215-103-161.lawn.gatech.edu at Fri Apr 27 14:07:27 2012
Module time:
	user time   =       0.02 seconds =       0.00 minutes
	system time =       0.01 seconds =       0.00 minutes
	total time  =          0 seconds =       0.00 minutes
Total time:
	user time   =       0.98 seconds =       0.02 minutes
	system time =       0.96 seconds =       0.02 minutes
	total time  =          4 seconds =       0.07 minutes

*** tstart() called on lawn-143-215-103-161.lawn.gatech.edu
*** at Fri Apr 27 14:07:27 2012


			**************************
			*                        *
			*         CCSORT         *
			*                        *
			**************************


	Input parameters:
	-----------------
	Wave function   =	CCSD
	Reference wfn   =	RHF
	Derivative      =	None
	Memory (Mbytes) =	250.0
	AO Basis        =	NONE
	Make (ab|cd)    =	True
	Make unpacked (ab|cd) =	False
	Cache Level     =	2
	Cache Type      =	LRU
	Local CC        =     No


	Chkpt Parameters:
	--------------------
	Number of irreps     = 4
	Number of MOs        = 25
	Number of active MOs = 25

	Label	# MOs	# FZDC	# DOCC	# SOCC	# VIRT	# FZVR
	-----	-----	------	------	------	------	------
	 A1	   12	    0	    3	    0	    9	    0
	 A2	   2	    0	    0	    0	    2	    0
	 B1	   4	    0	    1	    0	    3	    0
	 B2	   7	    0	    1	    0	    6	    0

	Nuclear Rep. energy (chkpt) =      9.06327349118660
	SCF energy          (chkpt) =    -76.02185531786617

	Size of irrep 0 of <ab|cd> integrals:      0.017 (MW) /      0.135 (MB)
	Size of irrep 1 of <ab|cd> integrals:      0.005 (MW) /      0.041 (MB)
	Size of irrep 2 of <ab|cd> integrals:      0.006 (MW) /      0.049 (MB)
	Size of irrep 3 of <ab|cd> integrals:      0.014 (MW) /      0.115 (MB)
	Total:                                     0.043 (MW) /      0.341 (MB)

	Size of irrep 0 of <ia|bc> integrals:      0.005 (MW) /      0.037 (MB)
	Size of irrep 1 of <ia|bc> integrals:      0.001 (MW) /      0.009 (MB)
	Size of irrep 2 of <ia|bc> integrals:      0.002 (MW) /      0.012 (MB)
	Size of irrep 3 of <ia|bc> integrals:      0.003 (MW) /      0.028 (MB)
	Total:                                     0.011 (MW) /      0.086 (MB)

	Size of irrep 0 of tijab amplitudes:       0.001 (MW) /      0.011 (MB)
	Size of irrep 1 of tijab amplitudes:       0.000 (MW) /      0.001 (MB)
	Size of irrep 2 of tijab amplitudes:       0.000 (MW) /      0.004 (MB)
	Size of irrep 3 of tijab amplitudes:       0.001 (MW) /      0.006 (MB)
	Total:                                     0.003 (MW) /      0.022 (MB)


	Sorting File: A <ij|kl> nbuckets = 1
	Sorting File: B(+) <ab|cd> nbuckets = 1
	Sorting File: C <ia|jb> nbuckets = 1
	Sorting File: D <ij|ab> nbuckets = 1
	Sorting File: E <ai|jk> nbuckets = 1
	Sorting File: F <ia|bc> nbuckets = 1
	One-electron energy          =   -122.85562115154873
	Two-electron (AA) energy     =     14.41175404224069
	Two-electron (BB) energy     =     14.41175404224069
	Two-electron (AB) energy     =     23.35873830025525
	Two-electron energy          =     37.77049234249594
	Frozen-core energy (transqt) =      0.00000000000000
	Reference energy             =    -76.02185531786618

*** tstop() called on lawn-143-215-103-161.lawn.gatech.edu at Fri Apr 27 14:07:27 2012
Module time:
	user time   =       0.02 seconds =       0.00 minutes
	system time =       0.03 seconds =       0.00 minutes
	total time  =          0 seconds =       0.00 minutes
Total time:
	user time   =       1.00 seconds =       0.02 minutes
	system time =       0.99 seconds =       0.02 minutes
	total time  =          4 seconds =       0.07 minutes

*** tstart() called on lawn-143-215-103-161.lawn.gatech.edu
*** at Fri Apr 27 14:07:27 2012

			**************************
			*                        *
			*        CCENERGY        *
			*                        *
			**************************

	Nuclear Rep. energy (chkpt)   =    9.063273491186603
	SCF energy          (chkpt)   =  -76.021855317866169
	Reference energy    (file100) =  -76.021855317866184

	Input parameters:
	-----------------
	Wave function   =     CCSD
	Reference wfn   =     RHF
	Memory (Mbytes) =     250.0
	Maxiter         =     50
	Convergence     =     1.0e-10
	Restart         =     No
	DIIS            =     Yes
	AO Basis        =     NONE
	ABCD            =     NEW
	Cache Level     =     2
	Cache Type      =     LOW
	Print Level     =     1
	Num. of threads =     1
	# Amps to Print =     10
	Print MP2 Amps? =     No
	Analyze T2 Amps =     No
	Print Pair Ener =     No
	Local CC        =     No
	SCS-MP2         =     False
	SCSN-MP2        =     False
	SCS-CCSD        =     False

	            Solving CC Amplitude Equations
	            ------------------------------
  Iter             Energy              RMS        T1Diag      D1Diag    New D1Diag
  ----     ---------------------    ---------   ----------  ----------  ----------
     0        -0.200376968756146    5.094e-11    0.000000    0.000000    0.000000
     1        -0.204601302530982    2.739e-02    0.004518    0.008933    0.008933
     2        -0.208544245403369    9.830e-03    0.005175    0.010376    0.010376
     3        -0.209068437789356    2.810e-03    0.005711    0.011973    0.011973
     4        -0.209072789294985    6.513e-04    0.005766    0.012289    0.012289
     5        -0.209087741826475    2.075e-04    0.005805    0.012486    0.012486
     6        -0.209083775597895    6.524e-05    0.005819    0.012557    0.012557
     7        -0.209083215581336    1.578e-05    0.005822    0.012576    0.012576
     8        -0.209083194641790    2.963e-06    0.005823    0.012579    0.012579
     9        -0.209083117134830    7.148e-07    0.005823    0.012579    0.012579
    10        -0.209083137559095    1.525e-07    0.005823    0.012579    0.012579
    11        -0.209083135884696    2.980e-08    0.005823    0.012579    0.012579
    12        -0.209083136512287    4.846e-09    0.005823    0.012579    0.012579
    13        -0.209083136399813    1.079e-09    0.005823    0.012579    0.012579
    14        -0.209083136390614    2.009e-10    0.005823    0.012579    0.012579
    15        -0.209083136388584    5.262e-11    0.005823    0.012579    0.012579

	Iterations converged.


	Largest TIA Amplitudes:
	          2   0         0.0109072498
	          3  11        -0.0066631013
	          4  14        -0.0062841445
	          4  18         0.0054089029
	          4  16         0.0049476317
	          1   2         0.0043945942
	          2   5         0.0040843249
	          1   0        -0.0026640345
	          1   7         0.0023369705
	          2   1         0.0022105669

	Largest TIjAb Amplitudes:
	  3   3  11  11        -0.0519041516
	  4   4  14  14        -0.0395531467
	  2   2   2   2        -0.0304648808
	  4   4  15  15        -0.0287665554
	  2   3   2  11         0.0255779199
	  3   2  11   2         0.0255779199
	  3   4  11  16        -0.0248174049
	  4   3  16  11        -0.0248174049
	  4   4  16  16        -0.0245908170
	  3   4  11  14        -0.0244827365

	SCF energy       (chkpt)              =  -76.021855317866169
	Reference energy (file100)            =  -76.021855317866184

	Opposite-spin MP2 correlation energy  =   -0.150029846948084
	Same-spin MP2 correlation energy      =   -0.050347121808062
	MP2 correlation energy                =   -0.200376968756146
      * MP2 total energy                      =  -76.222232286622329

	Opposite-spin CCSD correlation energy =   -0.164491183718840
	Same-spin CCSD correlation energy     =   -0.044591952669454
	CCSD correlation energy               =   -0.209083136388584
      * CCSD total energy                     =  -76.230938454254769


*** tstop() called on lawn-143-215-103-161.lawn.gatech.edu at Fri Apr 27 14:07:29 2012
Module time:
	user time   =       0.35 seconds =       0.01 minutes
	system time =       0.42 seconds =       0.01 minutes
	total time  =          2 seconds =       0.03 minutes
Total time:
	user time   =       1.35 seconds =       0.02 minutes
	system time =       1.41 seconds =       0.02 minutes
	total time  =          6 seconds =       0.10 minutes

  //>>>>>>>>>>>>>>>>>>>>>>>>>>>>>>>>>>>//
  //    Loading displacement 4 of 5    //
  //<<<<<<<<<<<<<<<<<<<<<<<<<<<<<<<<<<<//

*** tstart() called on lawn-143-215-103-161.lawn.gatech.edu
*** at Fri Apr 27 14:07:29 2012

	There are an even number of electrons - assuming singlet.
	Specify the multiplicity with the MULTP option in the
	input if this is incorrect


         ---------------------------------------------------------
                                   SCF
            by Justin Turney, Rob Parrish, and Andy Simmonett
                              RHF Reference
                        1 Threads,    250 MiB Core
         ---------------------------------------------------------

  ==> Geometry <==

    Molecular point group: c2v

    Geometry (in Angstrom), charge = 0, multiplicity = 1:

       Center              X                  Y                   Z       
    ------------   -----------------  -----------------  -----------------
           O          0.000000000000     0.000000000000    -0.067578587269
           H          0.000000000000    -0.757266265522     0.536260610269
           H          0.000000000000     0.757266265522     0.536260610269

  Running in c2v symmetry.

  Nuclear repulsion =    9.091233999648598

  Charge       = 0
  Multiplicity = 1
  Electrons    = 10
  Nalpha       = 5
  Nbeta        = 5

  ==> Algorithm <==

  SCF Algorithm Type is PK.
  DIIS enabled.
  MOM disabled.
  Fractional occupation disabled.
  Guess Type is CORE.
  Energy threshold   = 1.00e-10
  Density threshold  = 1.00e-10
  Integral threshold = 0.00e+00

  ==> Primary Basis <==

  Basis Set: 6-31G**
    Number of shells: 12
    Number of basis function: 25
    Number of Cartesian functions: 25
    Spherical Harmonics?: false
    Max angular momentum: 2

  ==> Pre-Iterations <==

  Minimum eigenvalue in the overlap matrix is 2.2254739623E-02.
  Using Symmetric Orthogonalization.
  SCF Guess: Core (One-Electron) Hamiltonian.

  Initial RHF energy:   -58.67173872790882

   -------------------------------------------------------
    Irrep   Nso     Nmo     Nalpha   Nbeta   Ndocc  Nsocc
   -------------------------------------------------------
     A1        12      12       3       3       3       0
     A2         2       2       0       0       0       0
     B1         4       4       1       1       1       0
     B2         7       7       1       1       1       0
   -------------------------------------------------------
    Total      25      25       5       5       5       0
   -------------------------------------------------------

  ==> Integral Setup <==

 MINTS: Wrapper to libmints.
   by Justin Turney

   Calculation information:
      Number of atoms:                   3
      Number of AO shells:              12
      Number of SO shells:               9
      Number of primitives:             25
      Number of atomic orbitals:        25
      Number of basis functions:        25

      Number of irreps:                  4
      Number of functions per irrep: [  12    2    4    7 ]

      Overlap, kinetic, potential, dipole, and quadrupole integrals
        stored in file 35.

      Computing two-electron integrals...done
      Computed 13617 non-zero two-electron integrals.
        Stored in file 33.

  ==> Iterations <==

                        Total Energy        Delta E     Density RMS

   @RHF iter   1:   -68.29099184054373   -9.61925e+00   0.00000e+00 
	Occupation by irrep:
	         A1    A2    B1    B2 
	DOCC [     4,    0,    0,    1 ]

   @RHF iter   2:   -71.40097079134986   -3.10998e+00   5.22424e-01 DIIS
	Occupation by irrep:
	         A1    A2    B1    B2 
	DOCC [     3,    0,    1,    1 ]

   @RHF iter   3:   -75.76800546272676   -4.36703e+00   4.96537e-01 DIIS
   @RHF iter   4:   -76.00476136272509   -2.36756e-01   1.71064e-02 DIIS
   @RHF iter   5:   -76.02171048373961   -1.69491e-02   7.74964e-03 DIIS
   @RHF iter   6:   -76.02209135523347   -3.80871e-04   1.22746e-03 DIIS
   @RHF iter   7:   -76.02212921446235   -3.78592e-05   5.20173e-04 DIIS
   @RHF iter   8:   -76.02213036677179   -1.15231e-06   8.26481e-05 DIIS
   @RHF iter   9:   -76.02213043751036   -7.07386e-08   2.39475e-05 DIIS
   @RHF iter  10:   -76.02213043919247   -1.68211e-09   3.80418e-06 DIIS
   @RHF iter  11:   -76.02213043919940   -6.93490e-12   1.82983e-07 DIIS
   @RHF iter  12:   -76.02213043919957   -1.70530e-13   3.65437e-08 DIIS
   @RHF iter  13:   -76.02213043919959   -1.42109e-14   6.34836e-09 DIIS
   @RHF iter  14:   -76.02213043919967   -8.52651e-14   6.31051e-10 DIIS

  ==> Post-Iterations <==

	Orbital Energies (a.u.)
	-----------------------

	Doubly Occupied:                                                      

	   1A1   -20.563575     2A1    -1.335979     1B2    -0.694375  
	   3A1    -0.570092     1B1    -0.497047  

	Virtual:                                                              

	   4A1     0.209441     2B2     0.301575     3B2     0.993118  
	   5A1     1.082411     6A1     1.131334     2B1     1.168560  
	   4B2     1.294492     7A1     1.419153     8A1     1.804469  
	   1A2     1.806024     3B1     1.919019     9A1     2.556843  
	   5B2     2.573916     6B2     2.781868     2A2     2.956705  
	   4B1     2.987835    10A1     3.352143    11A1     3.684285  
	   7B2     3.915670    12A1     4.093958  

	Final Occupation by Irrep:
	         A1    A2    B1    B2 
	DOCC [     3,    0,    1,    1 ]

  Energy converged.

  @RHF Final Energy:   -76.02213043919967

   => Energetics <=

    Nuclear Repulsion Energy =          9.0912339996485976
    One-Electron Energy =            -122.9045932098178611
    Two-Electron Energy =              37.7912287709696031
    DFT Functional Energy =             0.0000000000000000
    Empirical Dispersion Energy =       0.0000000000000000
    Total Energy =                    -76.0221304391996568

  ==> Properties <==

  Nuclear Dipole Moment: (a.u.)
     X:     0.0000      Y:     0.0000      Z:     1.0051

  Electronic Dipole Moment: (a.u.)
     X:     0.0000      Y:     0.0000      Z:    -0.1311

  Dipole Moment: (a.u.)
     X:     0.0000      Y:     0.0000      Z:     0.8741     Total:     0.8741

  Dipole Moment: (Debye)
     X:     0.0000      Y:     0.0000      Z:     2.2217     Total:     2.2217


  Saving occupied orbitals to File 180.

*** tstop() called on lawn-143-215-103-161.lawn.gatech.edu at Fri Apr 27 14:07:29 2012
Module time:
	user time   =       0.07 seconds =       0.00 minutes
	system time =       0.01 seconds =       0.00 minutes
	total time  =          0 seconds =       0.00 minutes
Total time:
	user time   =       1.42 seconds =       0.02 minutes
	system time =       1.42 seconds =       0.02 minutes
	total time  =          6 seconds =       0.10 minutes

*** tstart() called on lawn-143-215-103-161.lawn.gatech.edu
*** at Fri Apr 27 14:07:29 2012


	**************************************************
	* TRANSQT2: Program to transform integrals from  *
	*           the SO basis to the MO basis.        *
	*                                                *
	*            Daniel, David, & Justin             *
	**************************************************


	Input parameters:
	-----------------
	Wave function   =	CCSD
	Backtransform   =	No
	Print Level     =	1
	Print TEIs      =	No
	Reference wfn   =	RHF
	Derivative      =	None
	Delete TEI File =	Yes
	Memory (Mbytes) =	250.0
	Cache Level     =	2
	Cache Type      =	LRU
	Chkpt Parameters:
	--------------------
	Number of irreps     = 4
	Number of SOs        = 25
	Number of MOs        = 25
	Number of active MOs = 25

	Label	# SOs	# FZDC	# DOCC	# SOCC	# VIRT	# FZVR
	-----	-----	------	------	------	------	------
	 A1	   12	    0	    3	    0	    9	    0
	 A2	   2	    0	    0	    0	    2	    0
	 B1	   4	    0	    1	    0	    3	    0
	 B2	   7	    0	    1	    0	    6	    0

	Nuclear Rep. energy (chkpt) =      9.09123399964860
	SCF energy          (chkpt) =    -76.02213043919967

	Presorting SO-basis two-electron integrals.
	Sorting File: SO Ints (pq,rs) nbuckets = 1
	Frozen-core energy =    0.000000000000000
	Starting first half-transformation.
	Sorting half-transformed integrals.
	Starting second half-transformation.
	Two-electron integral transformation complete.

*** tstop() called on lawn-143-215-103-161.lawn.gatech.edu at Fri Apr 27 14:07:29 2012
Module time:
	user time   =       0.01 seconds =       0.00 minutes
	system time =       0.01 seconds =       0.00 minutes
	total time  =          0 seconds =       0.00 minutes
Total time:
	user time   =       1.43 seconds =       0.02 minutes
	system time =       1.43 seconds =       0.02 minutes
	total time  =          6 seconds =       0.10 minutes

*** tstart() called on lawn-143-215-103-161.lawn.gatech.edu
*** at Fri Apr 27 14:07:29 2012


			**************************
			*                        *
			*         CCSORT         *
			*                        *
			**************************


	Input parameters:
	-----------------
	Wave function   =	CCSD
	Reference wfn   =	RHF
	Derivative      =	None
	Memory (Mbytes) =	250.0
	AO Basis        =	NONE
	Make (ab|cd)    =	True
	Make unpacked (ab|cd) =	False
	Cache Level     =	2
	Cache Type      =	LRU
	Local CC        =     No


	Chkpt Parameters:
	--------------------
	Number of irreps     = 4
	Number of MOs        = 25
	Number of active MOs = 25

	Label	# MOs	# FZDC	# DOCC	# SOCC	# VIRT	# FZVR
	-----	-----	------	------	------	------	------
	 A1	   12	    0	    3	    0	    9	    0
	 A2	   2	    0	    0	    0	    2	    0
	 B1	   4	    0	    1	    0	    3	    0
	 B2	   7	    0	    1	    0	    6	    0

	Nuclear Rep. energy (chkpt) =      9.09123399964860
	SCF energy          (chkpt) =    -76.02213043919967

	Size of irrep 0 of <ab|cd> integrals:      0.017 (MW) /      0.135 (MB)
	Size of irrep 1 of <ab|cd> integrals:      0.005 (MW) /      0.041 (MB)
	Size of irrep 2 of <ab|cd> integrals:      0.006 (MW) /      0.049 (MB)
	Size of irrep 3 of <ab|cd> integrals:      0.014 (MW) /      0.115 (MB)
	Total:                                     0.043 (MW) /      0.341 (MB)

	Size of irrep 0 of <ia|bc> integrals:      0.005 (MW) /      0.037 (MB)
	Size of irrep 1 of <ia|bc> integrals:      0.001 (MW) /      0.009 (MB)
	Size of irrep 2 of <ia|bc> integrals:      0.002 (MW) /      0.012 (MB)
	Size of irrep 3 of <ia|bc> integrals:      0.003 (MW) /      0.028 (MB)
	Total:                                     0.011 (MW) /      0.086 (MB)

	Size of irrep 0 of tijab amplitudes:       0.001 (MW) /      0.011 (MB)
	Size of irrep 1 of tijab amplitudes:       0.000 (MW) /      0.001 (MB)
	Size of irrep 2 of tijab amplitudes:       0.000 (MW) /      0.004 (MB)
	Size of irrep 3 of tijab amplitudes:       0.001 (MW) /      0.006 (MB)
	Total:                                     0.003 (MW) /      0.022 (MB)


	Sorting File: A <ij|kl> nbuckets = 1
	Sorting File: B(+) <ab|cd> nbuckets = 1
	Sorting File: C <ia|jb> nbuckets = 1
	Sorting File: D <ij|ab> nbuckets = 1
	Sorting File: E <ai|jk> nbuckets = 1
	Sorting File: F <ia|bc> nbuckets = 1
	One-electron energy          =   -122.90459321085351
	Two-electron (AA) energy     =     14.42057915960266
	Two-electron (BB) energy     =     14.42057915960266
	Two-electron (AB) energy     =     23.37064961240262
	Two-electron energy          =     37.79122877200527
	Frozen-core energy (transqt) =      0.00000000000000
	Reference energy             =    -76.02213043919964

*** tstop() called on lawn-143-215-103-161.lawn.gatech.edu at Fri Apr 27 14:07:29 2012
Module time:
	user time   =       0.02 seconds =       0.00 minutes
	system time =       0.03 seconds =       0.00 minutes
	total time  =          0 seconds =       0.00 minutes
Total time:
	user time   =       1.45 seconds =       0.02 minutes
	system time =       1.46 seconds =       0.02 minutes
	total time  =          6 seconds =       0.10 minutes

*** tstart() called on lawn-143-215-103-161.lawn.gatech.edu
*** at Fri Apr 27 14:07:29 2012

			**************************
			*                        *
			*        CCENERGY        *
			*                        *
			**************************

	Nuclear Rep. energy (chkpt)   =    9.091233999648598
	SCF energy          (chkpt)   =  -76.022130439199671
	Reference energy    (file100) =  -76.022130439199643

	Input parameters:
	-----------------
	Wave function   =     CCSD
	Reference wfn   =     RHF
	Memory (Mbytes) =     250.0
	Maxiter         =     50
	Convergence     =     1.0e-10
	Restart         =     No
	DIIS            =     Yes
	AO Basis        =     NONE
	ABCD            =     NEW
	Cache Level     =     2
	Cache Type      =     LOW
	Print Level     =     1
	Num. of threads =     1
	# Amps to Print =     10
	Print MP2 Amps? =     No
	Analyze T2 Amps =     No
	Print Pair Ener =     No
	Local CC        =     No
	SCS-MP2         =     False
	SCSN-MP2        =     False
	SCS-CCSD        =     False

	            Solving CC Amplitude Equations
	            ------------------------------
  Iter             Energy              RMS        T1Diag      D1Diag    New D1Diag
  ----     ---------------------    ---------   ----------  ----------  ----------
     0        -0.200192378623221    5.262e-11    0.000000    0.000000    0.000000
     1        -0.204447799055955    2.727e-02    0.004498    0.008874    0.008874
     2        -0.208365793902764    9.758e-03    0.005147    0.010291    0.010291
     3        -0.208884463420771    2.780e-03    0.005676    0.011861    0.011861
     4        -0.208888754863291    6.420e-04    0.005729    0.012168    0.012168
     5        -0.208903485345443    2.031e-04    0.005767    0.012359    0.012359
     6        -0.208899649250504    6.382e-05    0.005780    0.012429    0.012429
     7        -0.208899093650223    1.553e-05    0.005784    0.012447    0.012447
     8        -0.208899076248262    2.912e-06    0.005784    0.012450    0.012450
     9        -0.208899000037965    6.994e-07    0.005784    0.012450    0.012450
    10        -0.208899020057654    1.488e-07    0.005784    0.012450    0.012450
    11        -0.208899018456971    2.902e-08    0.005784    0.012450    0.012450
    12        -0.208899019068942    4.708e-09    0.005784    0.012450    0.012450
    13        -0.208899018960512    1.046e-09    0.005784    0.012450    0.012450
    14        -0.208899018951588    1.945e-10    0.005784    0.012450    0.012450
    15        -0.208899018949616    5.079e-11    0.005784    0.012450    0.012450

	Iterations converged.


	Largest TIA Amplitudes:
	          2   0         0.0107793370
	          3  11        -0.0066448131
	          4  14        -0.0063095203
	          4  18         0.0053725361
	          4  16         0.0048754967
	          1   2         0.0043280425
	          2   5         0.0040516538
	          1   0        -0.0026811925
	          1   7         0.0023423736
	          2   1         0.0022366353

	Largest TIjAb Amplitudes:
	  3   3  11  11        -0.0518938434
	  4   4  14  14        -0.0392733156
	  2   2   2   2        -0.0292820620
	  4   4  15  15        -0.0287363883
	  2   3   2  11         0.0248815788
	  3   2  11   2         0.0248815788
	  3   4  11  16        -0.0248463132
	  4   3  16  11        -0.0248463132
	  4   4  16  16        -0.0246602576
	  3   4  11  14        -0.0244269664

	SCF energy       (chkpt)              =  -76.022130439199671
	Reference energy (file100)            =  -76.022130439199643

	Opposite-spin MP2 correlation energy  =   -0.149880226965520
	Same-spin MP2 correlation energy      =   -0.050312151657701
	MP2 correlation energy                =   -0.200192378623221
      * MP2 total energy                      =  -76.222322817822857

	Opposite-spin CCSD correlation energy =   -0.164309181656916
	Same-spin CCSD correlation energy     =   -0.044589837292419
	CCSD correlation energy               =   -0.208899018949616
      * CCSD total energy                     =  -76.231029458149251


*** tstop() called on lawn-143-215-103-161.lawn.gatech.edu at Fri Apr 27 14:07:31 2012
Module time:
	user time   =       0.34 seconds =       0.01 minutes
	system time =       0.42 seconds =       0.01 minutes
	total time  =          2 seconds =       0.03 minutes
Total time:
	user time   =       1.80 seconds =       0.03 minutes
	system time =       1.88 seconds =       0.03 minutes
	total time  =          8 seconds =       0.13 minutes

  //>>>>>>>>>>>>>>>>>>>>>>>>>>>>>>>>>>>//
  //    Loading displacement 5 of 5    //
  //<<<<<<<<<<<<<<<<<<<<<<<<<<<<<<<<<<<//

*** tstart() called on lawn-143-215-103-161.lawn.gatech.edu
*** at Fri Apr 27 14:07:31 2012

	There are an even number of electrons - assuming singlet.
	Specify the multiplicity with the MULTP option in the
	input if this is incorrect


         ---------------------------------------------------------
                                   SCF
            by Justin Turney, Rob Parrish, and Andy Simmonett
                              RHF Reference
                        1 Threads,    250 MiB Core
         ---------------------------------------------------------

  ==> Geometry <==

    Molecular point group: c2v

    Geometry (in Angstrom), charge = 0, multiplicity = 1:

       Center              X                  Y                   Z       
    ------------   -----------------  -----------------  -----------------
           O          0.000000000000     0.000000000000    -0.067578587269
           H          0.000000000000    -0.759129912147     0.536260610269
           H          0.000000000000     0.759129912147     0.536260610269

  Running in c2v symmetry.

  Nuclear repulsion =    9.077238153630928

  Charge       = 0
  Multiplicity = 1
  Electrons    = 10
  Nalpha       = 5
  Nbeta        = 5

  ==> Algorithm <==

  SCF Algorithm Type is PK.
  DIIS enabled.
  MOM disabled.
  Fractional occupation disabled.
  Guess Type is CORE.
  Energy threshold   = 1.00e-10
  Density threshold  = 1.00e-10
  Integral threshold = 0.00e+00

  ==> Primary Basis <==

  Basis Set: 6-31G**
    Number of shells: 12
    Number of basis function: 25
    Number of Cartesian functions: 25
    Spherical Harmonics?: false
    Max angular momentum: 2

  ==> Pre-Iterations <==

  Minimum eigenvalue in the overlap matrix is 2.2308645666E-02.
  Using Symmetric Orthogonalization.
  SCF Guess: Core (One-Electron) Hamiltonian.

  Initial RHF energy:   -58.67612896328600

   -------------------------------------------------------
    Irrep   Nso     Nmo     Nalpha   Nbeta   Ndocc  Nsocc
   -------------------------------------------------------
     A1        12      12       3       3       3       0
     A2         2       2       0       0       0       0
     B1         4       4       1       1       1       0
     B2         7       7       1       1       1       0
   -------------------------------------------------------
    Total      25      25       5       5       5       0
   -------------------------------------------------------

  ==> Integral Setup <==

 MINTS: Wrapper to libmints.
   by Justin Turney

   Calculation information:
      Number of atoms:                   3
      Number of AO shells:              12
      Number of SO shells:               9
      Number of primitives:             25
      Number of atomic orbitals:        25
      Number of basis functions:        25

      Number of irreps:                  4
      Number of functions per irrep: [  12    2    4    7 ]

      Overlap, kinetic, potential, dipole, and quadrupole integrals
        stored in file 35.

      Computing two-electron integrals...done
      Computed 13617 non-zero two-electron integrals.
        Stored in file 33.

  ==> Iterations <==

                        Total Energy        Delta E     Density RMS

   @RHF iter   1:   -68.29457538492346   -9.61845e+00   0.00000e+00 
	Occupation by irrep:
	         A1    A2    B1    B2 
	DOCC [     4,    0,    0,    1 ]

   @RHF iter   2:   -71.40214895176796   -3.10757e+00   5.21557e-01 DIIS
	Occupation by irrep:
	         A1    A2    B1    B2 
	DOCC [     3,    0,    1,    1 ]

   @RHF iter   3:   -75.76849950140169   -4.36635e+00   4.95640e-01 DIIS
   @RHF iter   4:   -76.00465639463499   -2.36157e-01   1.70838e-02 DIIS
   @RHF iter   5:   -76.02157592921309   -1.69195e-02   7.74804e-03 DIIS
   @RHF iter   6:   -76.02195844293942   -3.82514e-04   1.22994e-03 DIIS
   @RHF iter   7:   -76.02199662644671   -3.81835e-05   5.22673e-04 DIIS
   @RHF iter   8:   -76.02199779472249   -1.16828e-06   8.31744e-05 DIIS
   @RHF iter   9:   -76.02199786640747   -7.16850e-08   2.41323e-05 DIIS
   @RHF iter  10:   -76.02199786811565   -1.70817e-09   3.82411e-06 DIIS
   @RHF iter  11:   -76.02199786812278   -7.13385e-12   1.86355e-07 DIIS
   @RHF iter  12:   -76.02199786812301   -2.27374e-13   3.72443e-08 DIIS
   @RHF iter  13:   -76.02199786812304   -2.84217e-14   6.40841e-09 DIIS
   @RHF iter  14:   -76.02199786812302    1.42109e-14   6.31961e-10 DIIS

  ==> Post-Iterations <==

	Orbital Energies (a.u.)
	-----------------------

	Doubly Occupied:                                                      

	   1A1   -20.563756     2A1    -1.335128     1B2    -0.693868  
	   3A1    -0.569546     1B1    -0.496894  

	Virtual:                                                              

	   4A1     0.209148     2B2     0.301190     3B2     0.992987  
	   5A1     1.080901     6A1     1.131133     2B1     1.168613  
	   4B2     1.294487     7A1     1.418369     1A2     1.805555  
	   8A1     1.805556     3B1     1.919426     9A1     2.554725  
	   5B2     2.571406     6B2     2.778746     2A2     2.955797  
	   4B1     2.985114    10A1     3.349725    11A1     3.681198  
	   7B2     3.913090    12A1     4.093637  

	Final Occupation by Irrep:
	         A1    A2    B1    B2 
	DOCC [     3,    0,    1,    1 ]

  Energy converged.

  @RHF Final Energy:   -76.02199786812302

   => Energetics <=

    Nuclear Repulsion Energy =          9.0772381536309279
    One-Electron Energy =            -122.8800883795718732
    Two-Electron Energy =              37.7808523578179063
    DFT Functional Energy =             0.0000000000000000
    Empirical Dispersion Energy =       0.0000000000000000
    Total Energy =                    -76.0219978681230373

  ==> Properties <==

  Nuclear Dipole Moment: (a.u.)
     X:     0.0000      Y:     0.0000      Z:     1.0051

  Electronic Dipole Moment: (a.u.)
     X:     0.0000      Y:     0.0000      Z:    -0.1315

  Dipole Moment: (a.u.)
     X:     0.0000      Y:     0.0000      Z:     0.8736     Total:     0.8736

  Dipole Moment: (Debye)
     X:     0.0000      Y:     0.0000      Z:     2.2205     Total:     2.2205


  Saving occupied orbitals to File 180.

*** tstop() called on lawn-143-215-103-161.lawn.gatech.edu at Fri Apr 27 14:07:31 2012
Module time:
	user time   =       0.07 seconds =       0.00 minutes
	system time =       0.01 seconds =       0.00 minutes
	total time  =          0 seconds =       0.00 minutes
Total time:
	user time   =       1.87 seconds =       0.03 minutes
	system time =       1.89 seconds =       0.03 minutes
	total time  =          8 seconds =       0.13 minutes

*** tstart() called on lawn-143-215-103-161.lawn.gatech.edu
*** at Fri Apr 27 14:07:31 2012


	**************************************************
	* TRANSQT2: Program to transform integrals from  *
	*           the SO basis to the MO basis.        *
	*                                                *
	*            Daniel, David, & Justin             *
	**************************************************


	Input parameters:
	-----------------
	Wave function   =	CCSD
	Backtransform   =	No
	Print Level     =	1
	Print TEIs      =	No
	Reference wfn   =	RHF
	Derivative      =	None
	Delete TEI File =	Yes
	Memory (Mbytes) =	250.0
	Cache Level     =	2
	Cache Type      =	LRU
	Chkpt Parameters:
	--------------------
	Number of irreps     = 4
	Number of SOs        = 25
	Number of MOs        = 25
	Number of active MOs = 25

	Label	# SOs	# FZDC	# DOCC	# SOCC	# VIRT	# FZVR
	-----	-----	------	------	------	------	------
	 A1	   12	    0	    3	    0	    9	    0
	 A2	   2	    0	    0	    0	    2	    0
	 B1	   4	    0	    1	    0	    3	    0
	 B2	   7	    0	    1	    0	    6	    0

	Nuclear Rep. energy (chkpt) =      9.07723815363093
	SCF energy          (chkpt) =    -76.02199786812302

	Presorting SO-basis two-electron integrals.
	Sorting File: SO Ints (pq,rs) nbuckets = 1
	Frozen-core energy =    0.000000000000000
	Starting first half-transformation.
	Sorting half-transformed integrals.
	Starting second half-transformation.
	Two-electron integral transformation complete.

*** tstop() called on lawn-143-215-103-161.lawn.gatech.edu at Fri Apr 27 14:07:31 2012
Module time:
	user time   =       0.01 seconds =       0.00 minutes
	system time =       0.01 seconds =       0.00 minutes
	total time  =          0 seconds =       0.00 minutes
Total time:
	user time   =       1.88 seconds =       0.03 minutes
	system time =       1.90 seconds =       0.03 minutes
	total time  =          8 seconds =       0.13 minutes

*** tstart() called on lawn-143-215-103-161.lawn.gatech.edu
*** at Fri Apr 27 14:07:31 2012


			**************************
			*                        *
			*         CCSORT         *
			*                        *
			**************************


	Input parameters:
	-----------------
	Wave function   =	CCSD
	Reference wfn   =	RHF
	Derivative      =	None
	Memory (Mbytes) =	250.0
	AO Basis        =	NONE
	Make (ab|cd)    =	True
	Make unpacked (ab|cd) =	False
	Cache Level     =	2
	Cache Type      =	LRU
	Local CC        =     No


	Chkpt Parameters:
	--------------------
	Number of irreps     = 4
	Number of MOs        = 25
	Number of active MOs = 25

	Label	# MOs	# FZDC	# DOCC	# SOCC	# VIRT	# FZVR
	-----	-----	------	------	------	------	------
	 A1	   12	    0	    3	    0	    9	    0
	 A2	   2	    0	    0	    0	    2	    0
	 B1	   4	    0	    1	    0	    3	    0
	 B2	   7	    0	    1	    0	    6	    0

	Nuclear Rep. energy (chkpt) =      9.07723815363093
	SCF energy          (chkpt) =    -76.02199786812302

	Size of irrep 0 of <ab|cd> integrals:      0.017 (MW) /      0.135 (MB)
	Size of irrep 1 of <ab|cd> integrals:      0.005 (MW) /      0.041 (MB)
	Size of irrep 2 of <ab|cd> integrals:      0.006 (MW) /      0.049 (MB)
	Size of irrep 3 of <ab|cd> integrals:      0.014 (MW) /      0.115 (MB)
	Total:                                     0.043 (MW) /      0.341 (MB)

	Size of irrep 0 of <ia|bc> integrals:      0.005 (MW) /      0.037 (MB)
	Size of irrep 1 of <ia|bc> integrals:      0.001 (MW) /      0.009 (MB)
	Size of irrep 2 of <ia|bc> integrals:      0.002 (MW) /      0.012 (MB)
	Size of irrep 3 of <ia|bc> integrals:      0.003 (MW) /      0.028 (MB)
	Total:                                     0.011 (MW) /      0.086 (MB)

	Size of irrep 0 of tijab amplitudes:       0.001 (MW) /      0.011 (MB)
	Size of irrep 1 of tijab amplitudes:       0.000 (MW) /      0.001 (MB)
	Size of irrep 2 of tijab amplitudes:       0.000 (MW) /      0.004 (MB)
	Size of irrep 3 of tijab amplitudes:       0.001 (MW) /      0.006 (MB)
	Total:                                     0.003 (MW) /      0.022 (MB)


	Sorting File: A <ij|kl> nbuckets = 1
	Sorting File: B(+) <ab|cd> nbuckets = 1
	Sorting File: C <ia|jb> nbuckets = 1
	Sorting File: D <ij|ab> nbuckets = 1
	Sorting File: E <ai|jk> nbuckets = 1
	Sorting File: F <ia|bc> nbuckets = 1
	One-electron energy          =   -122.88008838062221
	Two-electron (AA) energy     =     14.41616306337424
	Two-electron (BB) energy     =     14.41616306337424
	Two-electron (AB) energy     =     23.36468929549401
	Two-electron energy          =     37.78085235886824
	Frozen-core energy (transqt) =      0.00000000000000
	Reference energy             =    -76.02199786812304

*** tstop() called on lawn-143-215-103-161.lawn.gatech.edu at Fri Apr 27 14:07:31 2012
Module time:
	user time   =       0.03 seconds =       0.00 minutes
	system time =       0.04 seconds =       0.00 minutes
	total time  =          0 seconds =       0.00 minutes
Total time:
	user time   =       1.91 seconds =       0.03 minutes
	system time =       1.94 seconds =       0.03 minutes
	total time  =          8 seconds =       0.13 minutes

*** tstart() called on lawn-143-215-103-161.lawn.gatech.edu
*** at Fri Apr 27 14:07:31 2012

			**************************
			*                        *
			*        CCENERGY        *
			*                        *
			**************************

[...]
  Nalpha       = 5
  Nbeta        = 5

  ==> Algorithm <==

  SCF Algorithm Type is PK.
  DIIS enabled.
  MOM disabled.
  Fractional occupation disabled.
  Guess Type is CORE.
  Energy threshold   = 1.00e-10
  Density threshold  = 1.00e-10
  Integral threshold = 0.00e+00

  ==> Primary Basis <==

  Basis Set: 6-31G**
    Number of shells: 12
    Number of basis function: 25
    Number of Cartesian functions: 25
    Spherical Harmonics?: false
    Max angular momentum: 2

  ==> Pre-Iterations <==

  Minimum eigenvalue in the overlap matrix is 2.1994503977E-02.
  Using Symmetric Orthogonalization.
  SCF Guess: Core (One-Electron) Hamiltonian.

  Initial RHF energy:   -58.65053763026709

   -------------------------------------------------------
    Irrep   Nso     Nmo     Nalpha   Nbeta   Ndocc  Nsocc
   -------------------------------------------------------
     A1        12      12       3       3       3       0
     A2         2       2       0       0       0       0
     B1         4       4       1       1       1       0
     B2         7       7       1       1       1       0
   -------------------------------------------------------
    Total      25      25       5       5       5       0
   -------------------------------------------------------

  ==> Integral Setup <==

 MINTS: Wrapper to libmints.
   by Justin Turney

   Calculation information:
      Number of atoms:                   3
      Number of AO shells:              12
      Number of SO shells:               9
      Number of primitives:             25
      Number of atomic orbitals:        25
      Number of basis functions:        25

      Number of irreps:                  4
      Number of functions per irrep: [  12    2    4    7 ]

      Overlap, kinetic, potential, dipole, and quadrupole integrals
        stored in file 35.

      Computing two-electron integrals...done
      Computed 13617 non-zero two-electron integrals.
        Stored in file 33.

  ==> Iterations <==

                        Total Energy        Delta E     Density RMS

   @RHF iter   1:   -68.27596151823263   -9.62542e+00   0.00000e+00 
	Occupation by irrep:
	         A1    A2    B1    B2 
	DOCC [     4,    0,    0,    1 ]

   @RHF iter   2:   -71.41294759968358   -3.13699e+00   5.27844e-01 DIIS
	Occupation by irrep:
	         A1    A2    B1    B2 
	DOCC [     3,    0,    1,    1 ]

   @RHF iter   3:   -75.76855350049800   -4.35561e+00   5.02207e-01 DIIS
   @RHF iter   4:   -76.00576703562740   -2.37214e-01   1.71482e-02 DIIS
   @RHF iter   5:   -76.02253889476603   -1.67719e-02   7.68568e-03 DIIS
   @RHF iter   6:   -76.02290568427517   -3.66790e-04   1.21542e-03 DIIS
   @RHF iter   7:   -76.02294153129827   -3.58470e-05   5.11817e-04 DIIS
   @RHF iter   8:   -76.02294257914954   -1.04785e-06   8.04118e-05 DIIS
   @RHF iter   9:   -76.02294264102923   -6.18797e-08   2.24195e-05 DIIS
   @RHF iter  10:   -76.02294264252382   -1.49458e-09   3.64624e-06 DIIS
   @RHF iter  11:   -76.02294264252896   -5.14433e-12   1.59158e-07 DIIS
   @RHF iter  12:   -76.02294264252916   -1.98952e-13   2.99910e-08 DIIS
   @RHF iter  13:   -76.02294264252913    2.84217e-14   5.54200e-09 DIIS
   @RHF iter  14:   -76.02294264252916   -2.84217e-14   6.55502e-10 DIIS

  ==> Post-Iterations <==

	Orbital Energies (a.u.)
	-----------------------

	Doubly Occupied:                                                      

	   1A1   -20.561381     2A1    -1.339050     1B2    -0.701081  
	   3A1    -0.568957     1B1    -0.497085  

	Virtual:                                                              

	   4A1     0.211398     2B2     0.303907     3B2     1.001474  
	   5A1     1.085198     6A1     1.132401     2B1     1.168831  
	   4B2     1.294708     7A1     1.415332     1A2     1.804139  
	   8A1     1.814640     3B1     1.923920     9A1     2.566997  
	   5B2     2.575434     6B2     2.800746     2A2     2.974153  
	   4B1     2.989337    10A1     3.371073    11A1     3.703140  
	   7B2     3.923358    12A1     4.105026  

	Final Occupation by Irrep:
	         A1    A2    B1    B2 
	DOCC [     3,    0,    1,    1 ]

  Energy converged.

  @RHF Final Energy:   -76.02294264252916

   => Energetics <=

    Nuclear Repulsion Energy =          9.1660072368584551
    One-Electron Energy =            -123.0427911817462103
    Two-Electron Energy =              37.8538413023586102
    DFT Functional Energy =             0.0000000000000000
    Empirical Dispersion Energy =       0.0000000000000000
    Total Energy =                    -76.0229426425291592

  ==> Properties <==

  Nuclear Dipole Moment: (a.u.)
     X:     0.0000      Y:     0.0000      Z:     0.9826

  Electronic Dipole Moment: (a.u.)
     X:     0.0000      Y:     0.0000      Z:    -0.1196

  Dipole Moment: (a.u.)
     X:     0.0000      Y:     0.0000      Z:     0.8630     Total:     0.8630

  Dipole Moment: (Debye)
     X:     0.0000      Y:     0.0000      Z:     2.1935     Total:     2.1935


  Saving occupied orbitals to File 180.

*** tstop() called on lawn-143-215-103-161.lawn.gatech.edu at Fri Apr 27 14:07:54 2012
Module time:
	user time   =       0.07 seconds =       0.00 minutes
	system time =       0.01 seconds =       0.00 minutes
	total time  =          0 seconds =       0.00 minutes
Total time:
	user time   =       6.46 seconds =       0.11 minutes
	system time =       6.63 seconds =       0.11 minutes
	total time  =         31 seconds =       0.52 minutes

*** tstart() called on lawn-143-215-103-161.lawn.gatech.edu
*** at Fri Apr 27 14:07:54 2012


	**************************************************
	* TRANSQT2: Program to transform integrals from  *
	*           the SO basis to the MO basis.        *
	*                                                *
	*            Daniel, David, & Justin             *
	**************************************************


	Input parameters:
	-----------------
	Wave function   =	CCSD
	Backtransform   =	No
	Print Level     =	1
	Print TEIs      =	No
	Reference wfn   =	RHF
	Derivative      =	None
	Delete TEI File =	Yes
	Memory (Mbytes) =	250.0
	Cache Level     =	2
	Cache Type      =	LRU
	Chkpt Parameters:
	--------------------
	Number of irreps     = 4
	Number of SOs        = 25
	Number of MOs        = 25
	Number of active MOs = 25

	Label	# SOs	# FZDC	# DOCC	# SOCC	# VIRT	# FZVR
	-----	-----	------	------	------	------	------
	 A1	   12	    0	    3	    0	    9	    0
	 A2	   2	    0	    0	    0	    2	    0
	 B1	   4	    0	    1	    0	    3	    0
	 B2	   7	    0	    1	    0	    6	    0

	Nuclear Rep. energy (chkpt) =      9.16600723685846
	SCF energy          (chkpt) =    -76.02294264252916

	Presorting SO-basis two-electron integrals.
	Sorting File: SO Ints (pq,rs) nbuckets = 1
	Frozen-core energy =    0.000000000000000
	Starting first half-transformation.
	Sorting half-transformed integrals.
	Starting second half-transformation.
	Two-electron integral transformation complete.

*** tstop() called on lawn-143-215-103-161.lawn.gatech.edu at Fri Apr 27 14:07:54 2012
Module time:
	user time   =       0.01 seconds =       0.00 minutes
	system time =       0.01 seconds =       0.00 minutes
	total time  =          0 seconds =       0.00 minutes
Total time:
	user time   =       6.47 seconds =       0.11 minutes
	system time =       6.64 seconds =       0.11 minutes
	total time  =         31 seconds =       0.52 minutes

*** tstart() called on lawn-143-215-103-161.lawn.gatech.edu
*** at Fri Apr 27 14:07:54 2012


			**************************
			*                        *
			*         CCSORT         *
			*                        *
			**************************


	Input parameters:
	-----------------
	Wave function   =	CCSD
	Reference wfn   =	RHF
	Derivative      =	None
	Memory (Mbytes) =	250.0
	AO Basis        =	NONE
	Make (ab|cd)    =	True
	Make unpacked (ab|cd) =	False
	Cache Level     =	2
	Cache Type      =	LRU
	Local CC        =     No


	Chkpt Parameters:
	--------------------
	Number of irreps     = 4
	Number of MOs        = 25
	Number of active MOs = 25

	Label	# MOs	# FZDC	# DOCC	# SOCC	# VIRT	# FZVR
	-----	-----	------	------	------	------	------
	 A1	   12	    0	    3	    0	    9	    0
	 A2	   2	    0	    0	    0	    2	    0
	 B1	   4	    0	    1	    0	    3	    0
	 B2	   7	    0	    1	    0	    6	    0

	Nuclear Rep. energy (chkpt) =      9.16600723685846
	SCF energy          (chkpt) =    -76.02294264252916

	Size of irrep 0 of <ab|cd> integrals:      0.017 (MW) /      0.135 (MB)
	Size of irrep 1 of <ab|cd> integrals:      0.005 (MW) /      0.041 (MB)
	Size of irrep 2 of <ab|cd> integrals:      0.006 (MW) /      0.049 (MB)
	Size of irrep 3 of <ab|cd> integrals:      0.014 (MW) /      0.115 (MB)
	Total:                                     0.043 (MW) /      0.341 (MB)

	Size of irrep 0 of <ia|bc> integrals:      0.005 (MW) /      0.037 (MB)
	Size of irrep 1 of <ia|bc> integrals:      0.001 (MW) /      0.009 (MB)
	Size of irrep 2 of <ia|bc> integrals:      0.002 (MW) /      0.012 (MB)
	Size of irrep 3 of <ia|bc> integrals:      0.003 (MW) /      0.028 (MB)
	Total:                                     0.011 (MW) /      0.086 (MB)

	Size of irrep 0 of tijab amplitudes:       0.001 (MW) /      0.011 (MB)
	Size of irrep 1 of tijab amplitudes:       0.000 (MW) /      0.001 (MB)
	Size of irrep 2 of tijab amplitudes:       0.000 (MW) /      0.004 (MB)
	Size of irrep 3 of tijab amplitudes:       0.001 (MW) /      0.006 (MB)
	Total:                                     0.003 (MW) /      0.022 (MB)


	Sorting File: A <ij|kl> nbuckets = 1
	Sorting File: B(+) <ab|cd> nbuckets = 1
	Sorting File: C <ia|jb> nbuckets = 1
	Sorting File: D <ij|ab> nbuckets = 1
	Sorting File: E <ai|jk> nbuckets = 1
	Sorting File: F <ia|bc> nbuckets = 1
	One-electron energy          =   -123.04279118269392
	Two-electron (AA) energy     =     14.44735223317236
	Two-electron (BB) energy     =     14.44735223317236
	Two-electron (AB) energy     =     23.40648907013389
	Two-electron energy          =     37.85384130330625
	Frozen-core energy (transqt) =      0.00000000000000
	Reference energy             =    -76.02294264252922

*** tstop() called on lawn-143-215-103-161.lawn.gatech.edu at Fri Apr 27 14:07:54 2012
Module time:
	user time   =       0.02 seconds =       0.00 minutes
	system time =       0.03 seconds =       0.00 minutes
	total time  =          0 seconds =       0.00 minutes
Total time:
	user time   =       6.49 seconds =       0.11 minutes
	system time =       6.67 seconds =       0.11 minutes
	total time  =         31 seconds =       0.52 minutes

*** tstart() called on lawn-143-215-103-161.lawn.gatech.edu
*** at Fri Apr 27 14:07:54 2012

			**************************
			*                        *
			*        CCENERGY        *
			*                        *
			**************************

	Nuclear Rep. energy (chkpt)   =    9.166007236858455
	SCF energy          (chkpt)   =  -76.022942642529159
	Reference energy    (file100) =  -76.022942642529216

	Input parameters:
	-----------------
	Wave function   =     CCSD
	Reference wfn   =     RHF
	Memory (Mbytes) =     250.0
	Maxiter         =     50
	Convergence     =     1.0e-10
	Restart         =     No
	DIIS            =     Yes
	AO Basis        =     NONE
	ABCD            =     NEW
	Cache Level     =     2
	Cache Type      =     LOW
	Print Level     =     1
	Num. of threads =     1
	# Amps to Print =     10
	Print MP2 Amps? =     No
	Analyze T2 Amps =     No
	Print Pair Ener =     No
	Local CC        =     No
	SCS-MP2         =     False
	SCSN-MP2        =     False
	SCS-CCSD        =     False

	            Solving CC Amplitude Equations
	            ------------------------------
  Iter             Energy              RMS        T1Diag      D1Diag    New D1Diag
  ----     ---------------------    ---------   ----------  ----------  ----------
     0        -0.199504087698769    4.523e-11    0.000000    0.000000    0.000000
     1        -0.203883748436831    2.689e-02    0.004415    0.008665    0.008665
     2        -0.207725509853820    9.534e-03    0.005047    0.010058    0.010058
     3        -0.208221419548935    2.681e-03    0.005552    0.011563    0.011563
     4        -0.208226095845506    6.192e-04    0.005604    0.011861    0.011861
     5        -0.208240042998906    1.949e-04    0.005639    0.012044    0.012044
     6        -0.208236410803823    6.141e-05    0.005652    0.012111    0.012111
     7        -0.208235855298602    1.504e-05    0.005656    0.012129    0.012129
     8        -0.208235846952739    2.790e-06    0.005656    0.012131    0.012131
     9        -0.208235773922459    6.565e-07    0.005656    0.012131    0.012131
    10        -0.208235792777672    1.384e-07    0.005656    0.012131    0.012131
    11        -0.208235791338170    2.706e-08    0.005656    0.012131    0.012131
    12        -0.208235791892745    4.379e-09    0.005656    0.012131    0.012131
    13        -0.208235791790618    9.656e-10    0.005656    0.012131    0.012131
    14        -0.208235791781905    1.773e-10    0.005656    0.012131    0.012131
    15        -0.208235791780220    4.605e-11    0.005656    0.012131    0.012131

	Iterations converged.


	Largest TIA Amplitudes:
	          2   0         0.0104323869
	          3  11        -0.0065456095
	          4  14        -0.0062450124
	          4  18         0.0052212276
	          4  16         0.0045986331
	          1   2         0.0042997203
	          2   5         0.0039394310
	          1   0        -0.0029165876
	          1   7         0.0023786967
	          2   1         0.0022534927

	Largest TIjAb Amplitudes:
	  3   3  11  11        -0.0518796366
	  4   4  14  14        -0.0379247090
	  2   2   2   2        -0.0294948463
	  4   4  15  15        -0.0286549067
	  2   3   2  11         0.0249920341
	  3   2  11   2         0.0249920341
	  3   4  11  16        -0.0247855312
	  4   3  16  11        -0.0247855312
	  4   4  16  16        -0.0246441775
	  3   4  11  14        -0.0242044225

	SCF energy       (chkpt)              =  -76.022942642529159
	Reference energy (file100)            =  -76.022942642529216

	Opposite-spin MP2 correlation energy  =   -0.149329846744644
	Same-spin MP2 correlation energy      =   -0.050174240954125
	MP2 correlation energy                =   -0.199504087698769
      * MP2 total energy                      =  -76.222446730227986

	Opposite-spin CCSD correlation energy =   -0.163673005848317
	Same-spin CCSD correlation energy     =   -0.044562785931673
	CCSD correlation energy               =   -0.208235791780220
      * CCSD total energy                     =  -76.231178434309442


*** tstop() called on lawn-143-215-103-161.lawn.gatech.edu at Fri Apr 27 14:07:56 2012
Module time:
	user time   =       0.35 seconds =       0.01 minutes
	system time =       0.42 seconds =       0.01 minutes
	total time  =          2 seconds =       0.03 minutes
Total time:
	user time   =       6.84 seconds =       0.11 minutes
	system time =       7.09 seconds =       0.12 minutes
	total time  =         33 seconds =       0.55 minutes

-------------------------------------------------------------

  Computing gradient from energies (fd_1_0).
	Using 3-point formula.
	Energy without displacement:  -76.2311784343
	Check energies below for precision!
	Forces are for mass-weighted, symmetry-adapted cartesians (in au).

	 Coord      Energy(-)        Energy(+)        Force
	    0    -76.2311753800   -76.2311748218     0.0000558263
	    1    -76.2311727522   -76.2311736989    -0.0000946735

	Gradient written to file11.
	Gradient saved to wavefunction.

-------------------------------------------------------------

			----------------------------------
			 OPTKING: for geometry optimizations  
			  - R.A. King,  Bethel University   
			------------------------------------

	Previous internal coordinate definitions found.
	---Fragment 1 Geometry and Gradient---
	 O           0.0000000000        0.0000000000       -0.1248467694
	 H           0.0000000000       -1.4313718347        0.9907044147
	 H           0.0000000000        1.4313718347        0.9907044147
	             0.0000000000        0.0000000000        0.0000746919
	             0.0000000000       -0.0000672057       -0.0000373460
	             0.0000000000        0.0000672057       -0.0000373460

	---Fragment 1 Intrafragment Coordinates---
	 - Coordinate -           - BOHR/RAD -       - ANG/DEG -
	 R(1,2)           =         1.814740	       0.960319
	 R(1,3)           =         1.814740	       0.960319
	 B(2,1,3)         =         1.817539	     104.137288

	Current energy   :       -76.2311784343

	Energy change for the previous step:
		Projected    :        -0.0000038368
		Actual       :        -0.0000034231
	Energy ratio indicates good step: Trust radius increased to 1.000e+00.


	Performing BFGS update with previous 1 gradient(s).
	Going to follow RFO solution 1.
	Projected energy change by RFO approximation:        -0.0000000484

	Back-transformation to cartesian coordinates...
	Successfully converged to displaced geometry.

	---Internal Coordinate Step in ANG or DEG, aJ/ANG or AJ/DEG ---
	 ----------------------------------------------------------------------
	 Coordinate             Previous        Force       Change         New 
	 ----------             --------       ------       ------       ------
	 R(1,2)          =      0.960319    -0.000248    -0.000010     0.960309
	 R(1,3)          =      0.960319    -0.000248    -0.000010     0.960309
	 B(2,1,3)        =    104.137288    -0.000010    -0.042723   104.094564
	 ----------------------------------------------------------------------

  ==> Convergence Check <==

  Measures of convergence in internal coordinates in au.
  Criteria marked as inactive (o), active & met (*), and active & unmet ( ).
  ---------------------------------------------------------------------------------------------
   Step     Total Energy     Delta E     MAX Force     RMS Force      MAX Disp      RMS Disp   
  ---------------------------------------------------------------------------------------------
    Convergence Criteria    1.00e-06 *    3.00e-04 *             o    1.20e-03 *             o
  ---------------------------------------------------------------------------------------------
      3     -76.23117843   -3.42e-06      1.28e-04 *    7.81e-05 o    7.46e-04 *    4.31e-04 o  ~
  ---------------------------------------------------------------------------------------------


  **** Optimization is complete! ****

  ==> Optimization Summary <==

  Measures of convergence in internal coordinates in au.
  --------------------------------------------------------------------------------------------------------------- ~
   Step         Total Energy             Delta E       MAX Force       RMS Force        MAX Disp        RMS Disp  ~
  --------------------------------------------------------------------------------------------------------------- ~
      1     -76.230988854576    -76.230988854576      0.00915980      0.00757531      0.01714963      0.01589015  ~
      2     -76.231175011161     -0.000186156585      0.00097691      0.00066581      0.00683900      0.00405769  ~
      3     -76.231178434309     -0.000003423149      0.00012843      0.00007810      0.00074566      0.00043077  ~
  --------------------------------------------------------------------------------------------------------------- ~

	Writing optimization data to binary file.
	Final energy is    -76.2311784343094
	Final (previous) structure:
	Cartesian Geometry (au)
	    O     0.0000000000   0.0000000000  -0.1248467694
	    H     0.0000000000  -1.4313718347   0.9907044147
	    H     0.0000000000   1.4313718347   0.9907044147
	Saving final (previous) structure.
			--------------------------
			 OPTKING Finished Execution 
			--------------------------

	Final optimized geometry and variables (in Angstrom):

	O
	H     1    0.960319
	H     1    0.960319     2  104.137288


*** PSI4 exiting successfully. Buy a developer a beer!
