    -----------------------------------------------------------------------
          PSI4: An Open-Source Ab Initio Electronic Structure Package
                              PSI 4.0.0-beta1 Driver

               Git: Rev 8268e5ba0276eef671d5bc4a44cf66fa46407463

    J. M. Turney, A. C. Simmonett, R. M. Parrish, E. G. Hohenstein,
    F. A. Evangelista, J. T. Fermann, B. J. Mintz, L. A. Burns, J. J. Wilke,
    M. L. Abrams, N. J. Russ, M. L. Leininger, C. L. Janssen, E. T. Seidl,
    W. D. Allen, H. F. Schaefer, R. A. King, E. F. Valeev, C. D. Sherrill,
    and T. D. Crawford, WIREs Comput. Mol. Sci., (2011) (doi: 10.1002/wcms.93)

                         Additional Contributions by
    A. E. DePrince, M. Saitow, U. Bozkaya, A. Yu. Sokolov
    -----------------------------------------------------------------------


    Using LocalCommunicator (Number of processes = 1)

    Memory level set to 256.000 MB

  ==> Input File <==

--------------------------------------------------------------------------
#! cc3: RHF-CCSD/6-31G** H2O geometry optimization and vibrational frequency
#! analysis by finite-differences of gradients


memory 250 mb

molecule h2o {
  0 1
  O 
  H 1 0.97
  H 1 0.97 2 103.0
}

set globals {
  basis 6-31G**
  r_convergence 10
  e_convergence 10
}

optimize('ccsd')

refnuc   =  9.166137300098260  #TEST
refscf   = -76.02293995043653  #TEST
refccsd  = -0.208238532935749  #TEST
reftotal = -76.2311784833722   #TEST

compare_values(refnuc,   h2o.nuclear_repulsion_energy(),          3, "Nuclear repulsion energy") #TEST
compare_values(refscf,   get_variable("SCF total energy"),        5, "SCF energy")               #TEST
compare_values(refccsd,  get_variable("CCSD correlation energy"), 4, "CCSD contribution")        #TEST
compare_values(reftotal, get_variable("Current energy"),          7, "Total energy")             #TEST

frequencies('ccsd', dertype=1)
fd_freqs_grad = PsiMod.reference_wavefunction().frequencies()

frequencies('ccsd', dertype=0)
fd_freqs_energy = PsiMod.reference_wavefunction().frequencies()

compare_vectors(fd_freqs_grad, fd_freqs_energy, 1, "CCSD Grads vs. Energies Findif (3-pt.) freqs to 0.1 cm^-1")

--------------------------------------------------------------------------

  Memory set to 250.000 MiB by Python script.

*** tstart() called on lawn-143-215-103-161.lawn.gatech.edu
*** at Fri Apr 27 14:07:56 2012


         ---------------------------------------------------------
                                   SCF
            by Justin Turney, Rob Parrish, and Andy Simmonett
                              RHF Reference
                        1 Threads,    250 MiB Core
         ---------------------------------------------------------

  ==> Geometry <==

    Molecular point group: c2v

    Geometry (in Angstrom), charge = 0, multiplicity = 1:

       Center              X                  Y                   Z       
    ------------   -----------------  -----------------  -----------------
           O          0.000000000000     0.000000000000    -0.067578587269
           H          0.000000000000    -0.759129912147     0.536260610269
           H          0.000000000000     0.759129912147     0.536260610269

  Running in c2v symmetry.

  Nuclear repulsion =    9.077238153630928

  Charge       = 0
  Multiplicity = 1
  Electrons    = 10
  Nalpha       = 5
  Nbeta        = 5

  ==> Algorithm <==

  SCF Algorithm Type is PK.
  DIIS enabled.
  MOM disabled.
  Fractional occupation disabled.
  Guess Type is CORE.
  Energy threshold   = 1.00e-10
  Density threshold  = 1.00e-08
  Integral threshold = 0.00e+00

  ==> Primary Basis <==

  Basis Set: 6-31G**
    Number of shells: 12
    Number of basis function: 25
    Number of Cartesian functions: 25
    Spherical Harmonics?: false
    Max angular momentum: 2

  ==> Pre-Iterations <==

  Minimum eigenvalue in the overlap matrix is 2.2308645666E-02.
  Using Symmetric Orthogonalization.
  SCF Guess: Core (One-Electron) Hamiltonian.

  Initial RHF energy:   -58.67612896328600

   -------------------------------------------------------
    Irrep   Nso     Nmo     Nalpha   Nbeta   Ndocc  Nsocc
   -------------------------------------------------------
     A1        12      12       3       3       3       0
     A2         2       2       0       0       0       0
     B1         4       4       1       1       1       0
     B2         7       7       1       1       1       0
   -------------------------------------------------------
    Total      25      25       5       5       5       0
   -------------------------------------------------------

  ==> Integral Setup <==

 MINTS: Wrapper to libmints.
   by Justin Turney

   Calculation information:
      Number of atoms:                   3
      Number of AO shells:              12
      Number of SO shells:               9
      Number of primitives:             25
      Number of atomic orbitals:        25
      Number of basis functions:        25

      Number of irreps:                  4
      Number of functions per irrep: [  12    2    4    7 ]

      Overlap, kinetic, potential, dipole, and quadrupole integrals
        stored in file 35.

      Computing two-electron integrals...done
      Computed 13617 non-zero two-electron integrals.
        Stored in file 33.

  ==> Iterations <==

                        Total Energy        Delta E     Density RMS

   @RHF iter   1:   -68.29457538492346   -9.61845e+00   0.00000e+00 
	Occupation by irrep:
	         A1    A2    B1    B2 
	DOCC [     4,    0,    0,    1 ]

   @RHF iter   2:   -71.40214895176796   -3.10757e+00   5.21557e-01 DIIS
	Occupation by irrep:
	         A1    A2    B1    B2 
	DOCC [     3,    0,    1,    1 ]

   @RHF iter   3:   -75.76849950140169   -4.36635e+00   4.95640e-01 DIIS
   @RHF iter   4:   -76.00465639463499   -2.36157e-01   1.70838e-02 DIIS
   @RHF iter   5:   -76.02157592921309   -1.69195e-02   7.74804e-03 DIIS
   @RHF iter   6:   -76.02195844293942   -3.82514e-04   1.22994e-03 DIIS
   @RHF iter   7:   -76.02199662644671   -3.81835e-05   5.22673e-04 DIIS
   @RHF iter   8:   -76.02199779472249   -1.16828e-06   8.31744e-05 DIIS
   @RHF iter   9:   -76.02199786640747   -7.16850e-08   2.41323e-05 DIIS
   @RHF iter  10:   -76.02199786811565   -1.70817e-09   3.82411e-06 DIIS
   @RHF iter  11:   -76.02199786812278   -7.13385e-12   1.86355e-07 DIIS
   @RHF iter  12:   -76.02199786812301   -2.27374e-13   3.72443e-08 DIIS

  ==> Post-Iterations <==

	Orbital Energies (a.u.)
	-----------------------

	Doubly Occupied:                                                      

	   1A1   -20.563756     2A1    -1.335128     1B2    -0.693868  
	   3A1    -0.569546     1B1    -0.496894  

	Virtual:                                                              

	   4A1     0.209148     2B2     0.301190     3B2     0.992987  
	   5A1     1.080901     6A1     1.131133     2B1     1.168613  
	   4B2     1.294487     7A1     1.418369     1A2     1.805555  
	   8A1     1.805556     3B1     1.919426     9A1     2.554725  
	   5B2     2.571406     6B2     2.778746     2A2     2.955797  
	   4B1     2.985114    10A1     3.349725    11A1     3.681198  
	   7B2     3.913090    12A1     4.093637  

	Final Occupation by Irrep:
	         A1    A2    B1    B2 
	DOCC [     3,    0,    1,    1 ]

  Energy converged.

  @RHF Final Energy:   -76.02199786812301

   => Energetics <=

    Nuclear Repulsion Energy =          9.0772381536309279
    One-Electron Energy =            -122.8800880486105029
    Two-Electron Energy =              37.7808520268565644
    DFT Functional Energy =             0.0000000000000000
    Empirical Dispersion Energy =       0.0000000000000000
    Total Energy =                    -76.0219978681230089

  ==> Properties <==

  Nuclear Dipole Moment: (a.u.)
     X:     0.0000      Y:     0.0000      Z:     1.0051

  Electronic Dipole Moment: (a.u.)
     X:     0.0000      Y:     0.0000      Z:    -0.1315

  Dipole Moment: (a.u.)
     X:     0.0000      Y:     0.0000      Z:     0.8736     Total:     0.8736

  Dipole Moment: (Debye)
     X:     0.0000      Y:     0.0000      Z:     2.2205     Total:     2.2205


  Saving occupied orbitals to File 180.

*** tstop() called on lawn-143-215-103-161.lawn.gatech.edu at Fri Apr 27 14:07:56 2012
Module time:
	user time   =       0.07 seconds =       0.00 minutes
	system time =       0.01 seconds =       0.00 minutes
	total time  =          0 seconds =       0.00 minutes
Total time:
	user time   =       0.07 seconds =       0.00 minutes
	system time =       0.01 seconds =       0.00 minutes
	total time  =          0 seconds =       0.00 minutes

*** tstart() called on lawn-143-215-103-161.lawn.gatech.edu
*** at Fri Apr 27 14:07:56 2012


	**************************************************
	* TRANSQT2: Program to transform integrals from  *
	*           the SO basis to the MO basis.        *
	*                                                *
	*            Daniel, David, & Justin             *
	**************************************************


	Input parameters:
	-----------------
	Wave function   =	CCSD
	Backtransform   =	No
	Print Level     =	1
	Print TEIs      =	No
	Reference wfn   =	RHF
	Derivative      =	First
	Delete TEI File =	Yes
	Memory (Mbytes) =	250.0
	Cache Level     =	2
	Cache Type      =	LRU
	Chkpt Parameters:
	--------------------
	Number of irreps     = 4
	Number of SOs        = 25
	Number of MOs        = 25
	Number of active MOs = 25

	Label	# SOs	# FZDC	# DOCC	# SOCC	# VIRT	# FZVR
	-----	-----	------	------	------	------	------
	 A1	   12	    0	    3	    0	    9	    0
	 A2	   2	    0	    0	    0	    2	    0
	 B1	   4	    0	    1	    0	    3	    0
	 B2	   7	    0	    1	    0	    6	    0

	Nuclear Rep. energy (chkpt) =      9.07723815363093
	SCF energy          (chkpt) =    -76.02199786812301

	Presorting SO-basis two-electron integrals.
	Sorting File: SO Ints (pq,rs) nbuckets = 1
	Frozen-core energy =    0.000000000000000
	Starting first half-transformation.
	Sorting half-transformed integrals.
	Starting second half-transformation.
	Two-electron integral transformation complete.

*** tstop() called on lawn-143-215-103-161.lawn.gatech.edu at Fri Apr 27 14:07:56 2012
Module time:
	user time   =       0.01 seconds =       0.00 minutes
	system time =       0.01 seconds =       0.00 minutes
	total time  =          0 seconds =       0.00 minutes
Total time:
	user time   =       0.08 seconds =       0.00 minutes
	system time =       0.02 seconds =       0.00 minutes
	total time  =          0 seconds =       0.00 minutes

*** tstart() called on lawn-143-215-103-161.lawn.gatech.edu
*** at Fri Apr 27 14:07:56 2012


			**************************
			*                        *
			*         CCSORT         *
			*                        *
			**************************


	Input parameters:
	-----------------
	Wave function   =	CCSD
	Reference wfn   =	RHF
	Derivative      =	First
	Memory (Mbytes) =	250.0
	AO Basis        =	NONE
	Make (ab|cd)    =	True
	Make unpacked (ab|cd) =	True
	Cache Level     =	2
	Cache Type      =	LRU
	Local CC        =     No


	Chkpt Parameters:
	--------------------
	Number of irreps     = 4
	Number of MOs        = 25
	Number of active MOs = 25

	Label	# MOs	# FZDC	# DOCC	# SOCC	# VIRT	# FZVR
	-----	-----	------	------	------	------	------
	 A1	   12	    0	    3	    0	    9	    0
	 A2	   2	    0	    0	    0	    2	    0
	 B1	   4	    0	    1	    0	    3	    0
	 B2	   7	    0	    1	    0	    6	    0

	Nuclear Rep. energy (chkpt) =      9.07723815363093
	SCF energy          (chkpt) =    -76.02199786812301

	Size of irrep 0 of <ab|cd> integrals:      0.017 (MW) /      0.135 (MB)
	Size of irrep 1 of <ab|cd> integrals:      0.005 (MW) /      0.041 (MB)
	Size of irrep 2 of <ab|cd> integrals:      0.006 (MW) /      0.049 (MB)
	Size of irrep 3 of <ab|cd> integrals:      0.014 (MW) /      0.115 (MB)
	Total:                                     0.043 (MW) /      0.341 (MB)

	Size of irrep 0 of <ia|bc> integrals:      0.005 (MW) /      0.037 (MB)
	Size of irrep 1 of <ia|bc> integrals:      0.001 (MW) /      0.009 (MB)
	Size of irrep 2 of <ia|bc> integrals:      0.002 (MW) /      0.012 (MB)
	Size of irrep 3 of <ia|bc> integrals:      0.003 (MW) /      0.028 (MB)
	Total:                                     0.011 (MW) /      0.086 (MB)

	Size of irrep 0 of tijab amplitudes:       0.001 (MW) /      0.011 (MB)
	Size of irrep 1 of tijab amplitudes:       0.000 (MW) /      0.001 (MB)
	Size of irrep 2 of tijab amplitudes:       0.000 (MW) /      0.004 (MB)
	Size of irrep 3 of tijab amplitudes:       0.001 (MW) /      0.006 (MB)
	Total:                                     0.003 (MW) /      0.022 (MB)


	Sorting File: A <ij|kl> nbuckets = 1
	Sorting File: B <ab|cd> nbuckets = 1
	Sorting File: B(+) <ab|cd> nbuckets = 1
	Sorting File: C <ia|jb> nbuckets = 1
	Sorting File: D <ij|ab> nbuckets = 1
	Sorting File: E <ai|jk> nbuckets = 1
	Sorting File: F <ia|bc> nbuckets = 1
	Sorting File: F <ai|bc> nbuckets = 1
	One-electron energy          =   -122.88008837984123
	Two-electron (AA) energy     =     14.41616306291656
	Two-electron (BB) energy     =     14.41616306291656
	Two-electron (AB) energy     =     23.36468929517074
	Two-electron energy          =     37.78085235808730
	Frozen-core energy (transqt) =      0.00000000000000
	Reference energy             =    -76.02199786812299

*** tstop() called on lawn-143-215-103-161.lawn.gatech.edu at Fri Apr 27 14:07:57 2012
Module time:
	user time   =       0.02 seconds =       0.00 minutes
	system time =       0.04 seconds =       0.00 minutes
	total time  =          1 seconds =       0.02 minutes
Total time:
	user time   =       0.10 seconds =       0.00 minutes
	system time =       0.06 seconds =       0.00 minutes
	total time  =          1 seconds =       0.02 minutes

*** tstart() called on lawn-143-215-103-161.lawn.gatech.edu
*** at Fri Apr 27 14:07:57 2012

			**************************
			*                        *
			*        CCENERGY        *
			*                        *
			**************************

	Nuclear Rep. energy (chkpt)   =    9.077238153630928
	SCF energy          (chkpt)   =  -76.021997868123009
	Reference energy    (file100) =  -76.021997868122995

	Input parameters:
	-----------------
	Wave function   =     CCSD
	Reference wfn   =     RHF
	Memory (Mbytes) =     250.0
	Maxiter         =     50
	Convergence     =     1.0e-10
	Restart         =     No
	DIIS            =     Yes
	AO Basis        =     NONE
	ABCD            =     NEW
	Cache Level     =     2
	Cache Type      =     LOW
	Print Level     =     1
	Num. of threads =     1
	# Amps to Print =     10
	Print MP2 Amps? =     No
	Analyze T2 Amps =     No
	Print Pair Ener =     No
	Local CC        =     No
	SCS-MP2         =     False
	SCSN-MP2        =     False
	SCS-CCSD        =     False

	            Solving CC Amplitude Equations
	            ------------------------------
  Iter             Energy              RMS        T1Diag      D1Diag    New D1Diag
  ----     ---------------------    ---------   ----------  ----------  ----------
     0        -0.200284590837872    0.000e+00    0.000000    0.000000    0.000000
     1        -0.204524507745473    2.733e-02    0.004508    0.008904    0.008904
     2        -0.208454941729927    9.794e-03    0.005161    0.010333    0.010333
     3        -0.208976359466645    2.795e-03    0.005693    0.011917    0.011917
     4        -0.208980680945378    6.466e-04    0.005747    0.012228    0.012228
     5        -0.208995521962109    2.053e-04    0.005786    0.012422    0.012422
     6        -0.208991621215854    6.453e-05    0.005799    0.012493    0.012493
     7        -0.208991063393427    1.565e-05    0.005803    0.012511    0.012511
     8        -0.208991044240207    2.937e-06    0.005803    0.012514    0.012514
     9        -0.208990967382170    7.070e-07    0.005803    0.012514    0.012514
    10        -0.208990987603813    1.507e-07    0.005803    0.012514    0.012514
    11        -0.208990985966620    2.941e-08    0.005803    0.012514    0.012514
    12        -0.208990986586376    4.776e-09    0.005803    0.012514    0.012514
    13        -0.208990986475943    1.062e-09    0.005803    0.012514    0.012514
    14        -0.208990986466882    1.977e-10    0.005803    0.012514    0.012514
    15        -0.208990986464881    5.170e-11    0.005803    0.012514    0.012514

	Iterations converged.


	Largest TIA Amplitudes:
	          2   0         0.0108430114
	          3  11        -0.0066539481
	          4  14        -0.0062968521
	          4  18         0.0053909635
	          4  16         0.0049115281
	          1   2         0.0043626415
	          2   5         0.0040679853
	          1   0        -0.0026726412
	          1   7         0.0023396382
	          2   1         0.0022229037

	Largest TIjAb Amplitudes:
	  3   3  11  11        -0.0518990471
	  4   4  14  14        -0.0394129220
	  2   2   2   2        -0.0298937647
	  4   4  15  15        -0.0287516408
	  2   3   2  11         0.0252440967
	  3   2  11   2         0.0252440967
	  3   4  11  16        -0.0248319621
	  4   3  16  11        -0.0248319621
	  4   4  16  16        -0.0246255029
	  3   4  11  14        -0.0244548499

	SCF energy       (chkpt)              =  -76.021997868123009
	Reference energy (file100)            =  -76.021997868122995

	Opposite-spin MP2 correlation energy  =   -0.149954968930211
	Same-spin MP2 correlation energy      =   -0.050329621907661
	MP2 correlation energy                =   -0.200284590837872
      * MP2 total energy                      =  -76.222282458960862

	Opposite-spin CCSD correlation energy =   -0.164400081284005
	Same-spin CCSD correlation energy     =   -0.044590905108737
	CCSD correlation energy               =   -0.208990986464881
      * CCSD total energy                     =  -76.230988854587878


*** tstop() called on lawn-143-215-103-161.lawn.gatech.edu at Fri Apr 27 14:07:58 2012
Module time:
	user time   =       0.36 seconds =       0.01 minutes
	system time =       0.42 seconds =       0.01 minutes
	total time  =          1 seconds =       0.02 minutes
Total time:
	user time   =       0.47 seconds =       0.01 minutes
	system time =       0.48 seconds =       0.01 minutes
	total time  =          2 seconds =       0.03 minutes

*** tstart() called on lawn-143-215-103-161.lawn.gatech.edu
*** at Fri Apr 27 14:07:58 2012


			**************************
			*                        *
			*         CCHBAR         *
			*                        *
			**************************


*** tstop() called on lawn-143-215-103-161.lawn.gatech.edu at Fri Apr 27 14:07:58 2012
Module time:
	user time   =       0.03 seconds =       0.00 minutes
	system time =       0.03 seconds =       0.00 minutes
	total time  =          0 seconds =       0.00 minutes
Total time:
	user time   =       0.50 seconds =       0.01 minutes
	system time =       0.51 seconds =       0.01 minutes
	total time  =          2 seconds =       0.03 minutes

*** tstart() called on lawn-143-215-103-161.lawn.gatech.edu
*** at Fri Apr 27 14:07:58 2012


			**************************
			*        CCLAMBDA        *
			**************************


	Nuclear Rep. energy (chkpt)   =    9.077238153630928
	Reference           (chkpt)   = 0
	SCF energy          (chkpt)   =  -76.021997868123009
	Reference energy    (CC_INFO) =  -76.021997868122995
	CCSD energy         (CC_INFO) =   -0.208990986464881
	Total CCSD energy   (CC_INFO) =  -76.230988854587878

	Input parameters:
	-----------------
	Maxiter       =      50
	Convergence   = 1.0e-10
	Restart       =     No
	Cache Level   =     2
	Model III     =     No
	DIIS          =     Yes
	AO Basis      =     No
	ABCD            =     NEW
	Local CC        =     No
	Paramaters for left-handed eigenvectors:
	    Irr   Root  Ground-State?    EOM energy        R0
	  1   0     0        Yes       0.0000000000   1.0000000000
	Labels for eigenvector 1:
	LIA 0 -1, Lia 0 -1, LIJAB 0 -1, Lijab 0 -1, LIjAb 0 -1, 2LIjAb - LIjbA 0 -1
	Symmetry of left-hand state: A1
	Symmetry of left-hand eigenvector: A1

	          Solving Lambda Equations
	          ------------------------
	Iter     PseudoEnergy or Norm         RMS  
	----     ---------------------     --------
	   0        -0.209027794005630    0.000e+00
	   1        -0.206495158143105    7.993e-03
	   2        -0.206067358802565    1.345e-03
	   3        -0.205981813809562    6.208e-04
	   4        -0.205975121423996    2.062e-04
	   5        -0.205978821580505    6.254e-05
	   6        -0.205978789317083    1.506e-05
	   7        -0.205978877253056    3.417e-06
	   8        -0.205978906724241    5.200e-07
	   9        -0.205978905360758    9.017e-08
	  10        -0.205978905071572    1.891e-08
	  11        -0.205978905093913    3.916e-09
	  12        -0.205978905117529    7.410e-10
	  13        -0.205978905113511    1.618e-10
	  14        -0.205978905113653    4.113e-11

	Largest LIA Amplitudes:
	          2   0         0.0072417734
	          4  16         0.0050589333
	          4  18         0.0046513025
	          3  11        -0.0039991725
	          2   5         0.0036194771
	          1   2         0.0032129530
	          4  14        -0.0031908029
	          1   3        -0.0025293250
	          1   7         0.0021477538
	          4  15        -0.0021208339

	Largest LIjAb Amplitudes:
	  3   3  11  11        -0.0516330656
	  4   4  14  14        -0.0384957384
	  2   2   2   2        -0.0295153593
	  4   4  15  15        -0.0280304816
	  2   3   2  11         0.0250935130
	  3   2  11   2         0.0250935130
	  3   4  11  16        -0.0246412005
	  4   3  16  11        -0.0246412005
	  4   4  16  16        -0.0243635773
	  3   4  11  14        -0.0241957745

	Iterations converged.

	Overlap <L|e^T> =        0.94273433018

*** tstop() called on lawn-143-215-103-161.lawn.gatech.edu at Fri Apr 27 14:07:59 2012
Module time:
	user time   =       0.09 seconds =       0.00 minutes
	system time =       0.08 seconds =       0.00 minutes
	total time  =          1 seconds =       0.02 minutes
Total time:
	user time   =       0.59 seconds =       0.01 minutes
	system time =       0.59 seconds =       0.01 minutes
	total time  =          3 seconds =       0.05 minutes

*** tstart() called on lawn-143-215-103-161.lawn.gatech.edu
*** at Fri Apr 27 14:07:59 2012


			**************************
			*                        *
			*        CCDENSITY       *
			*                        *
			**************************


	Input parameters:
	-----------------
	Wave function    =   CCSD
	Reference wfn    =   RHF
	Dertype          = 1
	Tolerance        = 1.0e-14
	Cache Level      = 2
	AO Basis         = No
	OPDM Only        = No
	Relax OPDM       = Yes
	Compute Xi       = No
	Use Zeta         = No
	Xi connected     = Yes

	Nuclear Rep. energy (chkpt)   =    9.077238153630928
	SCF energy          (chkpt)   =  -76.021997868123009
	Reference energy    (file100) =  -76.021997868122995
	CCSD energy         (CC_INFO) =   -0.208990986464881
	Total CCSD energy   (CC_INFO) =  -76.230988854587878
	Number of States = 1

	Ground?  State     EOM Energy       R0
	  Yes     0 A1    0.0000000000   1.00000000

	Energies re-computed from CC density:
	-------------------------------------
	One-electron energy        =    0.221186778749050
	IJKL energy                =    0.041993252490511
	IJKA energy                =   -0.001393403295645
	IJAB energy                =   -0.412136978914622
	IBJA energy                =   -0.101198078921108
	CIAB energy                =   -0.000203578222068
	ABCD energy                =    0.042761021649968
	Total two-electron energy  =   -0.430177765212964
	CCSD correlation energy    =   -0.208990986463913
	Total CCSD energy          =  -76.230988854586911

	Virial Theorem Data:
	--------------------
	Kinetic energy (ref)   =   75.764057168314366
	Kinetic energy (corr)  =    0.151616999206614
	Kinetic energy (total) =   75.915674167520976
	-V/T (ref)             =    2.003404525964543
	-V/T (corr)            =    2.378413948030204
	-V/T (total)           =    2.004153485963532

	Energies re-computed from Fock-adjusted CC density:
	---------------------------------------------------
	One-electron energy        =    0.245781758655146
	IJKL energy                =   -0.672858141812813
	IJKA energy                =   -0.047236969418605
	IJAB energy                =   -0.412136978914622
	IBJA energy                =    0.634901901611494
	CIAB energy                =   -0.000203578222068
	ABCD energy                =    0.042761021649968
	Total two-electron energy  =   -0.454772745106645
	CCSD correlation energy    =   -0.208990986451500
	Total CCSD energy          =  -76.230988854574491

	Energies re-computed from Mulliken density:
	-------------------------------------------
	One-electron energy        =    0.245781758655146
	IJKL energy                =   -0.672858141812813
	IJKA energy                =   -0.047236969418605
	IJAB energy                =   -0.381058776546333
	IBJA energy                =    0.603823699243204
	CIAB energy                =   -0.000203578222068
	ABCD energy                =    0.042761021649968
	Total two-electron energy  =   -0.454772745106645
	CCSD correlation energy    =   -0.208990986451500
	Total CCSD energy          =  -76.230988854574491

*** tstop() called on lawn-143-215-103-161.lawn.gatech.edu at Fri Apr 27 14:07:59 2012
Module time:
	user time   =       0.06 seconds =       0.00 minutes
	system time =       0.06 seconds =       0.00 minutes
	total time  =          0 seconds =       0.00 minutes
Total time:
	user time   =       0.65 seconds =       0.01 minutes
	system time =       0.65 seconds =       0.01 minutes
	total time  =          3 seconds =       0.05 minutes

*** tstart() called on lawn-143-215-103-161.lawn.gatech.edu
*** at Fri Apr 27 14:07:59 2012

 DERIV: Derivative code.
   by Justin Turney

  Cartesian Displacement SALCs
  By SALC:
  Number of SALCs: 3, nirreps: 1
  Project out translations: False
  Project out rotations: False
	irrep = 0, ncomponent = 1
		0: atom 0, direction z, coef 1.000000
	irrep = 0, ncomponent = 2
		0: atom 1, direction y, coef 0.707107
		1: atom 2, direction y, coef -0.707107
	irrep = 0, ncomponent = 2
		0: atom 1, direction z, coef 0.707107
		1: atom 2, direction z, coef 0.707107

  By Atomic Center:
  Number of atomic centers: 3
   Atomic Center 0:
	x component, size = 0
	y component, size = 0
	z component, size = 1
		0: salc 0, irrep 0, coef 1.000000
   Atomic Center 1:
	x component, size = 0
	y component, size = 1
		0: salc 1, irrep 0, coef 0.707107
	z component, size = 1
		0: salc 2, irrep 0, coef 0.707107
   Atomic Center 2:
	x component, size = 0
	y component, size = 1
		0: salc 1, irrep 0, coef -0.707107
	z component, size = 1
		0: salc 2, irrep 0, coef 0.707107

    Molecular point group: c2v

    Geometry (in Bohr), charge = 0, multiplicity = 1:

       Center              X                  Y                   Z       
    ------------   -----------------  -----------------  -----------------
           O          0.000000000000     0.000000000000    -0.127705022386
           H          0.000000000000    -1.434547633239     1.013385689263
           H          0.000000000000     1.434547633239     1.013385689263

	Presorting MO-basis TPDM.
	Sorting File: MO TPDM (AA|AA) nbuckets = 1
	Starting first half-transformation.
	Sorting half-transformed TPDM.
	First half integral transformation complete.


  -Nuclear Repulsion Energy 1st Derivatives:
     Atom            X                  Y                   Z
    ------   -----------------  -----------------  -----------------
       1        0.000000000000     0.000000000000     2.964342245725
       2        0.000000000000     1.984825954516    -1.482171122862
       3        0.000000000000    -1.984825954516    -1.482171122862


  -One-electron contribution to gradient:
     Atom            X                  Y                   Z
    ------   -----------------  -----------------  -----------------
       1        0.000000000000     0.000000000000    -6.872400547980
       2        0.000000000000    -4.509660588878     3.436200273990
       3        0.000000000000     4.509660588878     3.436200273990


  -Lagrangian contribution to gradient:
     Atom            X                  Y                   Z
    ------   -----------------  -----------------  -----------------
       1        0.000000000000     0.000000000000     0.411443443476
       2        0.000000000000     0.245759876710    -0.205721721738
       3        0.000000000000    -0.245759876710    -0.205721721738


  -Two-electron contribution to gradient:
     Atom            X                  Y                   Z
    ------   -----------------  -----------------  -----------------
       1        0.000000000000     0.000000000000     3.483428194540
       2        0.000000000000     2.272612728096    -1.741714097270
       3        0.000000000000    -2.272612728096    -1.741714097270


  -Total gradient:
     Atom            X                  Y                   Z
    ------   -----------------  -----------------  -----------------
       1        0.000000000000     0.000000000000    -0.013186664238
       2        0.000000000000    -0.006462029556     0.006593332119
       3        0.000000000000     0.006462029556     0.006593332119


*** tstop() called on lawn-143-215-103-161.lawn.gatech.edu at Fri Apr 27 14:07:59 2012
Module time:
	user time   =       0.15 seconds =       0.00 minutes
	system time =       0.03 seconds =       0.00 minutes
	total time  =          0 seconds =       0.00 minutes
Total time:
	user time   =       0.80 seconds =       0.01 minutes
	system time =       0.68 seconds =       0.01 minutes
	total time  =          3 seconds =       0.05 minutes

			----------------------------------
			 OPTKING: for geometry optimizations  
			  - R.A. King,  Bethel University   
			------------------------------------

	Internal coordinates to be generated automatically.
	Detected frag with atoms:  1 2 3
	---Fragment 1 Bond Connectivity---
	 1 : 2 3
	 2 : 1
	 3 : 1

	---Fragment 1 Geometry and Gradient---
	 O           0.0000000000        0.0000000000       -0.1277050224
	 H           0.0000000000       -1.4345476332        1.0133856893
	 H           0.0000000000        1.4345476332        1.0133856893
	             0.0000000000        0.0000000000       -0.0131866642
	             0.0000000000       -0.0064620296        0.0065933321
	             0.0000000000        0.0064620296        0.0065933321

	Previous optimization step data not found.  Starting new optimization.

	---Fragment 1 Intrafragment Coordinates---
	 - Coordinate -           - BOHR/RAD -       - ANG/DEG -
	 R(1,2)           =         1.833034	       0.970000
	 R(1,3)           =         1.833034	       0.970000
	 B(2,1,3)         =         1.797689	     103.000000

	Current energy   :       -76.2309888546

	Generating empirical Hessian (Schlegel '84) for each fragment.
	Going to follow RFO solution 1.
	Projected energy change by RFO approximation:        -0.0001707038

	Back-transformation to cartesian coordinates...
	Successfully converged to displaced geometry.

	---Internal Coordinate Step in ANG or DEG, aJ/ANG or AJ/DEG ---
	 ----------------------------------------------------------------------
	 Coordinate             Previous        Force       Change         New 
	 ----------             --------       ------       ------       ------
	 R(1,2)          =      0.970000    -0.075481    -0.009077     0.960923
	 R(1,3)          =      0.970000    -0.075481    -0.009077     0.960923
	 B(2,1,3)        =    103.000000     0.000159     0.744934   103.744934
	 ----------------------------------------------------------------------

  ==> Convergence Check <==

  Measures of convergence in internal coordinates in au.
  Criteria marked as inactive (o), active & met (*), and active & unmet ( ).
  --------------------------------------------------------------------------------------------- ~
   Step     Total Energy     Delta E     MAX Force     RMS Force      MAX Disp      RMS Disp    ~
  --------------------------------------------------------------------------------------------- ~
    Convergence Criteria    1.00e-06 *    3.00e-04 *             o    1.20e-03 *             o  ~
  --------------------------------------------------------------------------------------------- ~
      1     -76.23098885   -7.62e+01      9.16e-03      7.58e-03 o    1.72e-02      1.59e-02 o  ~
  ---------------------------------------------------------------------------------------------

	Writing optimization data to binary file.
	Structure for next step:
	Cartesian Geometry (au)
	    O     0.0000000000   0.0000000000  -0.1144114813
	    H     0.0000000000  -1.4284419180   1.0067389187
	    H     0.0000000000   1.4284419180   1.0067389187
			--------------------------
			 OPTKING Finished Execution 
			--------------------------

*** tstart() called on lawn-143-215-103-161.lawn.gatech.edu
*** at Fri Apr 27 14:07:59 2012


         ---------------------------------------------------------
                                   SCF
            by Justin Turney, Rob Parrish, and Andy Simmonett
                              RHF Reference
                        1 Threads,    250 MiB Core
         ---------------------------------------------------------

  ==> Geometry <==

    Molecular point group: c2v

    Geometry (in Angstrom), charge = 0, multiplicity = 1:

       Center              X                  Y                   Z       
    ------------   -----------------  -----------------  -----------------
           O          0.000000000000     0.000000000000    -0.066397666177
           H          0.000000000000    -0.755898906784     0.526889572918
           H          0.000000000000     0.755898906784     0.526889572918

  Running in c2v symmetry.

  Nuclear repulsion =    9.161180832408681

  Charge       = 0
  Multiplicity = 1
  Electrons    = 10
  Nalpha       = 5
  Nbeta        = 5

  ==> Algorithm <==

  SCF Algorithm Type is PK.
  DIIS enabled.
  MOM disabled.
  Fractional occupation disabled.
  Guess Type is CORE.
  Energy threshold   = 1.00e-10
  Density threshold  = 1.00e-08
  Integral threshold = 0.00e+00

  ==> Primary Basis <==

  Basis Set: 6-31G**
    Number of shells: 12
    Number of basis function: 25
    Number of Cartesian functions: 25
    Spherical Harmonics?: false
    Max angular momentum: 2

  ==> Pre-Iterations <==

  Minimum eigenvalue in the overlap matrix is 2.2007011577E-02.
  Using Symmetric Orthogonalization.
  SCF Guess: Core (One-Electron) Hamiltonian.

  Initial RHF energy:   -58.65158086689870

   -------------------------------------------------------
    Irrep   Nso     Nmo     Nalpha   Nbeta   Ndocc  Nsocc
   -------------------------------------------------------
     A1        12      12       3       3       3       0
     A2         2       2       0       0       0       0
     B1         4       4       1       1       1       0
     B2         7       7       1       1       1       0
   -------------------------------------------------------
    Total      25      25       5       5       5       0
   -------------------------------------------------------

  ==> Integral Setup <==

 MINTS: Wrapper to libmints.
   by Justin Turney

   Calculation information:
      Number of atoms:                   3
      Number of AO shells:              12
      Number of SO shells:               9
      Number of primitives:             25
      Number of atomic orbitals:        25
      Number of basis functions:        25

      Number of irreps:                  4
      Number of functions per irrep: [  12    2    4    7 ]

      Overlap, kinetic, potential, dipole, and quadrupole integrals
        stored in file 35.

      Computing two-electron integrals...done
      Computed 13617 non-zero two-electron integrals.
        Stored in file 33.

  ==> Iterations <==

                        Total Energy        Delta E     Density RMS

   @RHF iter   1:   -68.27623310074611   -9.62465e+00   0.00000e+00 
	Occupation by irrep:
	         A1    A2    B1    B2 
	DOCC [     4,    0,    0,    1 ]

   @RHF iter   2:   -71.40937660120603   -3.13314e+00   5.27377e-01 DIIS
	Occupation by irrep:
	         A1    A2    B1    B2 
	DOCC [     3,    0,    1,    1 ]

   @RHF iter   3:   -75.76802244471449   -4.35865e+00   5.01708e-01 DIIS
   @RHF iter   4:   -76.00563020113034   -2.37608e-01   1.71577e-02 DIIS
   @RHF iter   5:   -76.02246461220906   -1.68344e-02   7.70097e-03 DIIS
   @RHF iter   6:   -76.02283315353755   -3.68541e-04   1.21605e-03 DIIS
   @RHF iter   7:   -76.02286917684820   -3.60233e-05   5.11588e-04 DIIS
   @RHF iter   8:   -76.02287023449652   -1.05765e-06   8.04678e-05 DIIS
   @RHF iter   9:   -76.02287029751228   -6.30158e-08   2.25997e-05 DIIS
   @RHF iter  10:   -76.02287029902674   -1.51445e-09   3.66398e-06 DIIS
   @RHF iter  11:   -76.02287029903201   -5.27223e-12   1.61405e-07 DIIS
   @RHF iter  12:   -76.02287029903219   -1.84741e-13   3.08056e-08 DIIS

  ==> Post-Iterations <==

	Orbital Energies (a.u.)
	-----------------------

	Doubly Occupied:                                                      

	   1A1   -20.561713     2A1    -1.339083     1B2    -0.700031  
	   3A1    -0.569655     1B1    -0.497204  

	Virtual:                                                              

	   4A1     0.211209     2B2     0.303715     3B2     0.999716  
	   5A1     1.085843     6A1     1.132387     2B1     1.168726  
	   4B2     1.294665     7A1     1.416760     1A2     1.804934  
	   8A1     1.811543     3B1     1.922519     9A1     2.566521  
	   5B2     2.577347     6B2     2.798940     2A2     2.971042  
	   4B1     2.991295    10A1     3.369113    11A1     3.701471  
	   7B2     3.923869    12A1     4.102790  

	Final Occupation by Irrep:
	         A1    A2    B1    B2 
	DOCC [     3,    0,    1,    1 ]

  Energy converged.

  @RHF Final Energy:   -76.02287029903219

   => Energetics <=

    Nuclear Repulsion Energy =          9.1611808324086805
    One-Electron Energy =            -123.0327299799538423
    Two-Electron Energy =              37.8486788485129608
    DFT Functional Energy =             0.0000000000000000
    Empirical Dispersion Energy =       0.0000000000000000
    Total Energy =                    -76.0228702990322063

  ==> Properties <==

  Nuclear Dipole Moment: (a.u.)
     X:     0.0000      Y:     0.0000      Z:     0.9876

  Electronic Dipole Moment: (a.u.)
     X:     0.0000      Y:     0.0000      Z:    -0.1218

  Dipole Moment: (a.u.)
     X:     0.0000      Y:     0.0000      Z:     0.8658     Total:     0.8658

  Dipole Moment: (Debye)
     X:     0.0000      Y:     0.0000      Z:     2.2006     Total:     2.2006


  Saving occupied orbitals to File 180.

*** tstop() called on lawn-143-215-103-161.lawn.gatech.edu at Fri Apr 27 14:07:59 2012
Module time:
	user time   =       0.07 seconds =       0.00 minutes
	system time =       0.01 seconds =       0.00 minutes
	total time  =          0 seconds =       0.00 minutes
Total time:
	user time   =       0.87 seconds =       0.01 minutes
	system time =       0.69 seconds =       0.01 minutes
	total time  =          3 seconds =       0.05 minutes

*** tstart() called on lawn-143-215-103-161.lawn.gatech.edu
*** at Fri Apr 27 14:07:59 2012


	**************************************************
	* TRANSQT2: Program to transform integrals from  *
	*           the SO basis to the MO basis.        *
	*                                                *
	*            Daniel, David, & Justin             *
	**************************************************


	Input parameters:
	-----------------
	Wave function   =	CCSD
	Backtransform   =	No
	Print Level     =	1
	Print TEIs      =	No
	Reference wfn   =	RHF
	Derivative      =	First
	Delete TEI File =	Yes
	Memory (Mbytes) =	250.0
	Cache Level     =	2
	Cache Type      =	LRU
	Chkpt Parameters:
	--------------------
	Number of irreps     = 4
	Number of SOs        = 25
	Number of MOs        = 25
	Number of active MOs = 25

	Label	# SOs	# FZDC	# DOCC	# SOCC	# VIRT	# FZVR
	-----	-----	------	------	------	------	------
	 A1	   12	    0	    3	    0	    9	    0
	 A2	   2	    0	    0	    0	    2	    0
	 B1	   4	    0	    1	    0	    3	    0
	 B2	   7	    0	    1	    0	    6	    0

	Nuclear Rep. energy (chkpt) =      9.16118083240868
	SCF energy          (chkpt) =    -76.02287029903219

	Presorting SO-basis two-electron integrals.
	Sorting File: SO Ints (pq,rs) nbuckets = 1
	Frozen-core energy =    0.000000000000000
	Starting first half-transformation.
	Sorting half-transformed integrals.
	Starting second half-transformation.
	Two-electron integral transformation complete.

*** tstop() called on lawn-143-215-103-161.lawn.gatech.edu at Fri Apr 27 14:07:59 2012
Module time:
	user time   =       0.02 seconds =       0.00 minutes
	system time =       0.01 seconds =       0.00 minutes
	total time  =          0 seconds =       0.00 minutes
Total time:
	user time   =       0.89 seconds =       0.01 minutes
	system time =       0.70 seconds =       0.01 minutes
	total time  =          3 seconds =       0.05 minutes

*** tstart() called on lawn-143-215-103-161.lawn.gatech.edu
*** at Fri Apr 27 14:07:59 2012


			**************************
			*                        *
			*         CCSORT         *
			*                        *
			**************************


	Input parameters:
	-----------------
	Wave function   =	CCSD
	Reference wfn   =	RHF
	Derivative      =	First
	Memory (Mbytes) =	250.0
	AO Basis        =	NONE
	Make (ab|cd)    =	True
	Make unpacked (ab|cd) =	True
	Cache Level     =	2
	Cache Type      =	LRU
	Local CC        =     No


	Chkpt Parameters:
	--------------------
	Number of irreps     = 4
	Number of MOs        = 25
	Number of active MOs = 25

	Label	# MOs	# FZDC	# DOCC	# SOCC	# VIRT	# FZVR
	-----	-----	------	------	------	------	------
	 A1	   12	    0	    3	    0	    9	    0
	 A2	   2	    0	    0	    0	    2	    0
	 B1	   4	    0	    1	    0	    3	    0
	 B2	   7	    0	    1	    0	    6	    0

	Nuclear Rep. energy (chkpt) =      9.16118083240868
	SCF energy          (chkpt) =    -76.02287029903219

	Size of irrep 0 of <ab|cd> integrals:      0.017 (MW) /      0.135 (MB)
	Size of irrep 1 of <ab|cd> integrals:      0.005 (MW) /      0.041 (MB)
	Size of irrep 2 of <ab|cd> integrals:      0.006 (MW) /      0.049 (MB)
	Size of irrep 3 of <ab|cd> integrals:      0.014 (MW) /      0.115 (MB)
	Total:                                     0.043 (MW) /      0.341 (MB)

	Size of irrep 0 of <ia|bc> integrals:      0.005 (MW) /      0.037 (MB)
	Size of irrep 1 of <ia|bc> integrals:      0.001 (MW) /      0.009 (MB)
	Size of irrep 2 of <ia|bc> integrals:      0.002 (MW) /      0.012 (MB)
	Size of irrep 3 of <ia|bc> integrals:      0.003 (MW) /      0.028 (MB)
	Total:                                     0.011 (MW) /      0.086 (MB)

	Size of irrep 0 of tijab amplitudes:       0.001 (MW) /      0.011 (MB)
	Size of irrep 1 of tijab amplitudes:       0.000 (MW) /      0.001 (MB)
	Size of irrep 2 of tijab amplitudes:       0.000 (MW) /      0.004 (MB)
	Size of irrep 3 of tijab amplitudes:       0.001 (MW) /      0.006 (MB)
	Total:                                     0.003 (MW) /      0.022 (MB)


	Sorting File: A <ij|kl> nbuckets = 1
	Sorting File: B <ab|cd> nbuckets = 1
	Sorting File: B(+) <ab|cd> nbuckets = 1
	Sorting File: C <ia|jb> nbuckets = 1
	Sorting File: D <ij|ab> nbuckets = 1
	Sorting File: E <ai|jk> nbuckets = 1
	Sorting File: F <ia|bc> nbuckets = 1
	Sorting File: F <ai|bc> nbuckets = 1
	One-electron energy          =   -123.03273026327797
	Two-electron (AA) energy     =     14.44512538237895
	Two-electron (BB) energy     =     14.44512538237895
	Two-electron (AB) energy     =     23.40355374945813
	Two-electron energy          =     37.84867913183709
	Frozen-core energy (transqt) =      0.00000000000000
	Reference energy             =    -76.02287029903222

*** tstop() called on lawn-143-215-103-161.lawn.gatech.edu at Fri Apr 27 14:08:00 2012
Module time:
	user time   =       0.02 seconds =       0.00 minutes
	system time =       0.04 seconds =       0.00 minutes
	total time  =          1 seconds =       0.02 minutes
Total time:
	user time   =       0.91 seconds =       0.02 minutes
	system time =       0.74 seconds =       0.01 minutes
	total time  =          4 seconds =       0.07 minutes

*** tstart() called on lawn-143-215-103-161.lawn.gatech.edu
*** at Fri Apr 27 14:08:00 2012

			**************************
			*                        *
			*        CCENERGY        *
			*                        *
			**************************

	Nuclear Rep. energy (chkpt)   =    9.161180832408681
	SCF energy          (chkpt)   =  -76.022870299032192
	Reference energy    (file100) =  -76.022870299032220

	Input parameters:
	-----------------
	Wave function   =     CCSD
	Reference wfn   =     RHF
	Memory (Mbytes) =     250.0
	Maxiter         =     50
	Convergence     =     1.0e-10
	Restart         =     No
	DIIS            =     Yes
	AO Basis        =     NONE
	ABCD            =     NEW
	Cache Level     =     2
	Cache Type      =     LOW
	Print Level     =     1
	Num. of threads =     1
	# Amps to Print =     10
	Print MP2 Amps? =     No
	Analyze T2 Amps =     No
	Print Pair Ener =     No
	Local CC        =     No
	SCS-MP2         =     False
	SCSN-MP2        =     False
	SCS-CCSD        =     False

	            Solving CC Amplitude Equations
	            ------------------------------
  Iter             Energy              RMS        T1Diag      D1Diag    New D1Diag
  ----     ---------------------    ---------   ----------  ----------  ----------
     0        -0.199577929707863    5.170e-11    0.000000    0.000000    0.000000
     1        -0.203943406309902    2.693e-02    0.004425    0.008687    0.008687
     2        -0.207791733776156    9.554e-03    0.005058    0.010075    0.010075
     3        -0.208290350728302    2.690e-03    0.005565    0.011583    0.011583
     4        -0.208294921784561    6.205e-04    0.005616    0.011880    0.011880
     5        -0.208308950770259    1.950e-04    0.005652    0.012063    0.012063
     6        -0.208305324567232    6.138e-05    0.005665    0.012129    0.012129
     7        -0.208304770792047    1.505e-05    0.005668    0.012147    0.012147
     8        -0.208304761802058    2.796e-06    0.005669    0.012150    0.012150
     9        -0.208304688601397    6.596e-07    0.005669    0.012150    0.012150
    10        -0.208304707543142    1.392e-07    0.005669    0.012150    0.012150
    11        -0.208304706097002    2.717e-08    0.005669    0.012150    0.012150
    12        -0.208304706657649    4.395e-09    0.005669    0.012150    0.012150
    13        -0.208304706555702    9.697e-10    0.005669    0.012150    0.012150
    14        -0.208304706547050    1.785e-10    0.005669    0.012150    0.012150
    15        -0.208304706545325    4.636e-11    0.005669    0.012150    0.012150

	Iterations converged.


	Largest TIA Amplitudes:
	          2   0         0.0104578552
	          3  11        -0.0065599619
	          4  14        -0.0062679726
	          4  18         0.0052425996
	          4  16         0.0046299437
	          1   2         0.0042751569
	          2   5         0.0039508040
	          1   0        -0.0028721022
	          1   7         0.0023730146
	          2   1         0.0022659245

	Largest TIjAb Amplitudes:
	  3   3  11  11        -0.0518782954
	  4   4  14  14        -0.0381048587
	  2   2   2   2        -0.0288684549
	  4   4  15  15        -0.0286603429
	  3   4  11  16        -0.0248103170
	  4   3  16  11        -0.0248103170
	  4   4  16  16        -0.0246764505
	  2   3   2  11         0.0246211686
	  3   2  11   2         0.0246211686
	  3   4  11  14        -0.0242303550

	SCF energy       (chkpt)              =  -76.022870299032192
	Reference energy (file100)            =  -76.022870299032220

	Opposite-spin MP2 correlation energy  =   -0.149388403532619
	Same-spin MP2 correlation energy      =   -0.050189526175244
	MP2 correlation energy                =   -0.199577929707863
      * MP2 total energy                      =  -76.222448228740078

	Opposite-spin CCSD correlation energy =   -0.163737342084786
	Same-spin CCSD correlation energy     =   -0.044567364390825
	CCSD correlation energy               =   -0.208304706545325
      * CCSD total energy                     =  -76.231175005577541


*** tstop() called on lawn-143-215-103-161.lawn.gatech.edu at Fri Apr 27 14:08:02 2012
Module time:
	user time   =       0.38 seconds =       0.01 minutes
	system time =       0.45 seconds =       0.01 minutes
	total time  =          2 seconds =       0.03 minutes
Total time:
	user time   =       1.30 seconds =       0.02 minutes
	system time =       1.19 seconds =       0.02 minutes
	total time  =          6 seconds =       0.10 minutes

*** tstart() called on lawn-143-215-103-161.lawn.gatech.edu
*** at Fri Apr 27 14:08:02 2012


			**************************
			*                        *
			*         CCHBAR         *
			*                        *
			**************************


*** tstop() called on lawn-143-215-103-161.lawn.gatech.edu at Fri Apr 27 14:08:03 2012
Module time:
	user time   =       0.03 seconds =       0.00 minutes
	system time =       0.04 seconds =       0.00 minutes
	total time  =          1 seconds =       0.02 minutes
Total time:
	user time   =       1.33 seconds =       0.02 minutes
	system time =       1.23 seconds =       0.02 minutes
	total time  =          7 seconds =       0.12 minutes

*** tstart() called on lawn-143-215-103-161.lawn.gatech.edu
*** at Fri Apr 27 14:08:03 2012


			**************************
			*        CCLAMBDA        *
			**************************


	Nuclear Rep. energy (chkpt)   =    9.161180832408681
	Reference           (chkpt)   = 0
	SCF energy          (chkpt)   =  -76.022870299032192
	Reference energy    (CC_INFO) =  -76.022870299032220
	CCSD energy         (CC_INFO) =   -0.208304706545325
	Total CCSD energy   (CC_INFO) =  -76.231175005577541

	Input parameters:
	-----------------
	Maxiter       =      50
	Convergence   = 1.0e-10
	Restart       =     No
	Cache Level   =     2
	Model III     =     No
	DIIS          =     Yes
	AO Basis      =     No
	ABCD            =     NEW
	Local CC        =     No
	Paramaters for left-handed eigenvectors:
	    Irr   Root  Ground-State?    EOM energy        R0
	  1   0     0        Yes       0.0000000000   1.0000000000
	Labels for eigenvector 1:
	LIA 0 -1, Lia 0 -1, LIJAB 0 -1, Lijab 0 -1, LIjAb 0 -1, 2LIjAb - LIjbA 0 -1
	Symmetry of left-hand state: A1
	Symmetry of left-hand eigenvector: A1

	          Solving Lambda Equations
	          ------------------------
	Iter     PseudoEnergy or Norm         RMS  
	----     ---------------------     --------
	   0        -0.208341272618352    4.113e-11
	   1        -0.205855816999583    7.969e-03
	   2        -0.205434039973275    1.315e-03
	   3        -0.205350569932134    6.037e-04
	   4        -0.205344216616696    1.999e-04
	   5        -0.205347757081373    6.066e-05
	   6        -0.205347737441168    1.456e-05
	   7        -0.205347817897375    3.263e-06
	   8        -0.205347846049514    4.958e-07
	   9        -0.205347844617883    8.424e-08
	  10        -0.205347844397608    1.735e-08
	  11        -0.205347844409421    3.577e-09
	  12        -0.205347844430370    6.667e-10
	  13        -0.205347844425314    1.433e-10
	  14        -0.205347844425409    3.565e-11

	Largest LIA Amplitudes:
	          2   0         0.0069579861
	          4  16         0.0048367109
	          4  18         0.0045278787
	          3  11        -0.0038906231
	          2   5         0.0035178291
	          4  14        -0.0031667137
	          1   2         0.0031569113
	          1   3        -0.0024467769
	          1   7         0.0021792664
	          4  15        -0.0020512005

	Largest LIjAb Amplitudes:
	  3   3  11  11        -0.0515965284
	  4   4  14  14        -0.0372313900
	  2   2   2   2        -0.0285001129
	  4   4  15  15        -0.0279512431
	  3   4  11  16        -0.0246236932
	  4   3  16  11        -0.0246236932
	  2   3   2  11         0.0244701819
	  3   2  11   2         0.0244701819
	  4   4  16  16        -0.0244234360
	  3   4  11  14        -0.0239728049

	Iterations converged.

	Overlap <L|e^T> =        0.94342446339

*** tstop() called on lawn-143-215-103-161.lawn.gatech.edu at Fri Apr 27 14:08:03 2012
Module time:
	user time   =       0.10 seconds =       0.00 minutes
	system time =       0.08 seconds =       0.00 minutes
	total time  =          0 seconds =       0.00 minutes
Total time:
	user time   =       1.43 seconds =       0.02 minutes
	system time =       1.31 seconds =       0.02 minutes
	total time  =          7 seconds =       0.12 minutes

*** tstart() called on lawn-143-215-103-161.lawn.gatech.edu
*** at Fri Apr 27 14:08:03 2012


			**************************
			*                        *
			*        CCDENSITY       *
			*                        *
			**************************


	Input parameters:
	-----------------
	Wave function    =   CCSD
	Reference wfn    =   RHF
	Dertype          = 1
	Tolerance        = 1.0e-14
	Cache Level      = 2
	AO Basis         = No
	OPDM Only        = No
	Relax OPDM       = Yes
	Compute Xi       = No
	Use Zeta         = No
	Xi connected     = Yes

	Nuclear Rep. energy (chkpt)   =    9.161180832408681
	SCF energy          (chkpt)   =  -76.022870299032192
	Reference energy    (file100) =  -76.022870299032220
	CCSD energy         (CC_INFO) =   -0.208304706545325
	Total CCSD energy   (CC_INFO) =  -76.231175005577541
	Number of States = 1

	Ground?  State     EOM Energy       R0
	  Yes     0 A1    0.0000000000   1.00000000

	Energies re-computed from CC density:
	-------------------------------------
	One-electron energy        =    0.220401430502343
	IJKL energy                =    0.041624273354359
	IJKA energy                =   -0.001380495984852
	IJAB energy                =   -0.410871757674743
	IBJA energy                =   -0.100224189630113
	CIAB energy                =   -0.000154378137881
	ABCD energy                =    0.042300411026386
	Total two-electron energy  =   -0.428706137046845
	CCSD correlation energy    =   -0.208304706544502
	Total CCSD energy          =  -76.231175005576716

	Virial Theorem Data:
	--------------------
	Kinetic energy (ref)   =   75.797290299346741
	Kinetic energy (corr)  =    0.147813079038281
	Kinetic energy (total) =   75.945103378385028
	-V/T (ref)             =    2.002976095831323
	-V/T (corr)            =    2.409244079756828
	-V/T (total)           =    2.003766821223051

	Energies re-computed from Fock-adjusted CC density:
	---------------------------------------------------
	One-electron energy        =    0.246368012471740
	IJKL energy                =   -0.666765082125318
	IJKA energy                =   -0.047671156207117
	IJAB energy                =   -0.410871757674743
	IBJA energy                =    0.628489244115058
	CIAB energy                =   -0.000154378137881
	ABCD energy                =    0.042300411026386
	Total two-electron energy  =   -0.454672719003616
	CCSD correlation energy    =   -0.208304706531876
	Total CCSD energy          =  -76.231175005564097

	Energies re-computed from Mulliken density:
	-------------------------------------------
	One-electron energy        =    0.246368012471740
	IJKL energy                =   -0.666765082125318
	IJKA energy                =   -0.047671156207117
	IJAB energy                =   -0.379953585507058
	IBJA energy                =    0.597571071947373
	CIAB energy                =   -0.000154378137881
	ABCD energy                =    0.042300411026386
	Total two-electron energy  =   -0.454672719003616
	CCSD correlation energy    =   -0.208304706531876
	Total CCSD energy          =  -76.231175005564097

*** tstop() called on lawn-143-215-103-161.lawn.gatech.edu at Fri Apr 27 14:08:03 2012
Module time:
	user time   =       0.06 seconds =       0.00 minutes
	system time =       0.06 seconds =       0.00 minutes
	total time  =          0 seconds =       0.00 minutes
Total time:
	user time   =       1.49 seconds =       0.02 minutes
	system time =       1.37 seconds =       0.02 minutes
	total time  =          7 seconds =       0.12 minutes

*** tstart() called on lawn-143-215-103-161.lawn.gatech.edu
*** at Fri Apr 27 14:08:03 2012

 DERIV: Derivative code.
   by Justin Turney

  Cartesian Displacement SALCs
  By SALC:
  Number of SALCs: 3, nirreps: 1
  Project out translations: False
  Project out rotations: False
	irrep = 0, ncomponent = 1
		0: atom 0, direction z, coef 1.000000
	irrep = 0, ncomponent = 2
		0: atom 1, direction y, coef 0.707107
		1: atom 2, direction y, coef -0.707107
	irrep = 0, ncomponent = 2
		0: atom 1, direction z, coef 0.707107
		1: atom 2, direction z, coef 0.707107

  By Atomic Center:
  Number of atomic centers: 3
   Atomic Center 0:
	x component, size = 0
	y component, size = 0
	z component, size = 1
		0: salc 0, irrep 0, coef 1.000000
   Atomic Center 1:
	x component, size = 0
	y component, size = 1
		0: salc 1, irrep 0, coef 0.707107
	z component, size = 1
		0: salc 2, irrep 0, coef 0.707107
   Atomic Center 2:
	x component, size = 0
	y component, size = 1
		0: salc 1, irrep 0, coef -0.707107
	z component, size = 1
		0: salc 2, irrep 0, coef 0.707107

    Molecular point group: c2v

    Geometry (in Bohr), charge = 0, multiplicity = 1:

       Center              X                  Y                   Z       
    ------------   -----------------  -----------------  -----------------
           O          0.000000000000     0.000000000000    -0.125473404938
           H          0.000000000000    -1.428441917969     0.995676995087
           H          0.000000000000     1.428441917969     0.995676995087

	Presorting MO-basis TPDM.
	Sorting File: MO TPDM (AA|AA) nbuckets = 1
	Starting first half-transformation.
	Sorting half-transformed TPDM.
	First half integral transformation complete.


  -Nuclear Repulsion Energy 1st Derivatives:
     Atom            X                  Y                   Z
    ------   -----------------  -----------------  -----------------
       1        0.000000000000     0.000000000000     2.995860326804
       2        0.000000000000     2.031013916492    -1.497930163402
       3        0.000000000000    -2.031013916492    -1.497930163402


  -One-electron contribution to gradient:
     Atom            X                  Y                   Z
    ------   -----------------  -----------------  -----------------
       1        0.000000000000     0.000000000000    -6.905252291209
       2        0.000000000000    -4.604556140554     3.452626145605
       3        0.000000000000     4.604556140554     3.452626145605


  -Lagrangian contribution to gradient:
     Atom            X                  Y                   Z
    ------   -----------------  -----------------  -----------------
       1        0.000000000000     0.000000000000     0.413316410533
       2        0.000000000000     0.251209962196    -0.206658205266
       3        0.000000000000    -0.251209962196    -0.206658205266


  -Two-electron contribution to gradient:
     Atom            X                  Y                   Z
    ------   -----------------  -----------------  -----------------
       1        0.000000000000     0.000000000000     3.494694230874
       2        0.000000000000     2.322323848430    -1.747347115437
       3        0.000000000000    -2.322323848430    -1.747347115437


  -Total gradient:
     Atom            X                  Y                   Z
    ------   -----------------  -----------------  -----------------
       1        0.000000000000     0.000000000000    -0.001381322998
       2        0.000000000000    -0.000008413436     0.000690661499
       3        0.000000000000     0.000008413436     0.000690661499


*** tstop() called on lawn-143-215-103-161.lawn.gatech.edu at Fri Apr 27 14:08:03 2012
Module time:
	user time   =       0.15 seconds =       0.00 minutes
	system time =       0.02 seconds =       0.00 minutes
	total time  =          0 seconds =       0.00 minutes
Total time:
	user time   =       1.64 seconds =       0.03 minutes
	system time =       1.39 seconds =       0.02 minutes
	total time  =          7 seconds =       0.12 minutes

			----------------------------------
			 OPTKING: for geometry optimizations  
			  - R.A. King,  Bethel University   
			------------------------------------

	Previous internal coordinate definitions found.
	---Fragment 1 Geometry and Gradient---
	 O           0.0000000000        0.0000000000       -0.1254734049
	 H           0.0000000000       -1.4284419180        0.9956769951
	 H           0.0000000000        1.4284419180        0.9956769951
	             0.0000000000        0.0000000000       -0.0013813230
	             0.0000000000       -0.0000084134        0.0006906615
	             0.0000000000        0.0000084134        0.0006906615

	---Fragment 1 Intrafragment Coordinates---
	 - Coordinate -           - BOHR/RAD -       - ANG/DEG -
	 R(1,2)           =         1.815881	       0.960923
	 R(1,3)           =         1.815881	       0.960923
	 B(2,1,3)         =         1.810691	     103.744934

	Current energy   :       -76.2311750056

	Energy change for the previous step:
		Projected    :        -0.0001707038
		Actual       :        -0.0001861510
	Energy ratio indicates good step: Trust radius increased to 8.000e-01.


	Performing BFGS update with previous 1 gradient(s).
	Going to follow RFO solution 1.
	Projected energy change by RFO approximation:        -0.0000038376

	Back-transformation to cartesian coordinates...
	Successfully converged to displaced geometry.

	---Internal Coordinate Step in ANG or DEG, aJ/ANG or AJ/DEG ---
	 ----------------------------------------------------------------------
	 Coordinate             Previous        Force       Change         New 
	 ----------             --------       ------       ------       ------
	 R(1,2)          =      0.960923    -0.003568    -0.000606     0.960317
	 R(1,3)          =      0.960923    -0.003568    -0.000606     0.960317
	 B(2,1,3)        =    103.744934     0.000074     0.391908   104.136842
	 ----------------------------------------------------------------------

  ==> Convergence Check <==

  Measures of convergence in internal coordinates in au.
  Criteria marked as inactive (o), active & met (*), and active & unmet ( ).
  ---------------------------------------------------------------------------------------------
   Step     Total Energy     Delta E     MAX Force     RMS Force      MAX Disp      RMS Disp   
  ---------------------------------------------------------------------------------------------
    Convergence Criteria    1.00e-06 *    3.00e-04 *             o    1.20e-03 *             o
  ---------------------------------------------------------------------------------------------
      2     -76.23117501   -1.86e-04      9.77e-04      6.66e-04 o    6.84e-03      4.06e-03 o  ~
  ---------------------------------------------------------------------------------------------

	Writing optimization data to binary file.
	Structure for next step:
	Cartesian Geometry (au)
	    O     0.0000000000   0.0000000000  -0.1217430299
	    H     0.0000000000  -1.4313650496   0.9938118076
	    H     0.0000000000   1.4313650496   0.9938118076
			--------------------------
			 OPTKING Finished Execution 
			--------------------------

*** tstart() called on lawn-143-215-103-161.lawn.gatech.edu
*** at Fri Apr 27 14:08:03 2012


         ---------------------------------------------------------
                                   SCF
            by Justin Turney, Rob Parrish, and Andy Simmonett
                              RHF Reference
                        1 Threads,    250 MiB Core
         ---------------------------------------------------------

  ==> Geometry <==

    Molecular point group: c2v

    Geometry (in Angstrom), charge = 0, multiplicity = 1:

       Center              X                  Y                   Z       
    ------------   -----------------  -----------------  -----------------
           O          0.000000000000     0.000000000000    -0.066066281293
           H          0.000000000000    -0.757445761440     0.524259913618
           H          0.000000000000     0.757445761440     0.524259913618

  Running in c2v symmetry.

  Nuclear repulsion =    9.166023982516826

  Charge       = 0
  Multiplicity = 1
  Electrons    = 10
  Nalpha       = 5
  Nbeta        = 5

  ==> Algorithm <==

  SCF Algorithm Type is PK.
  DIIS enabled.
  MOM disabled.
  Fractional occupation disabled.
  Guess Type is CORE.
  Energy threshold   = 1.00e-10
  Density threshold  = 1.00e-08
  Integral threshold = 0.00e+00

  ==> Primary Basis <==

  Basis Set: 6-31G**
    Number of shells: 12
    Number of basis function: 25
    Number of Cartesian functions: 25
    Spherical Harmonics?: false
    Max angular momentum: 2

  ==> Pre-Iterations <==

  Minimum eigenvalue in the overlap matrix is 2.1994436524E-02.
  Using Symmetric Orthogonalization.
  SCF Guess: Core (One-Electron) Hamiltonian.

  Initial RHF energy:   -58.65053211093961

   -------------------------------------------------------
    Irrep   Nso     Nmo     Nalpha   Nbeta   Ndocc  Nsocc
   -------------------------------------------------------
     A1        12      12       3       3       3       0
     A2         2       2       0       0       0       0
     B1         4       4       1       1       1       0
     B2         7       7       1       1       1       0
   -------------------------------------------------------
    Total      25      25       5       5       5       0
   -------------------------------------------------------

  ==> Integral Setup <==

 MINTS: Wrapper to libmints.
   by Justin Turney

   Calculation information:
      Number of atoms:                   3
      Number of AO shells:              12
      Number of SO shells:               9
      Number of primitives:             25
      Number of atomic orbitals:        25
      Number of basis functions:        25

      Number of irreps:                  4
      Number of functions per irrep: [  12    2    4    7 ]

      Overlap, kinetic, potential, dipole, and quadrupole integrals
        stored in file 35.

      Computing two-electron integrals...done
      Computed 13617 non-zero two-electron integrals.
        Stored in file 33.

  ==> Iterations <==

                        Total Energy        Delta E     Density RMS

   @RHF iter   1:   -68.27595647098002   -9.62542e+00   0.00000e+00 
	Occupation by irrep:
	         A1    A2    B1    B2 
	DOCC [     4,    0,    0,    1 ]

   @RHF iter   2:   -71.41294357538067   -3.13699e+00   5.27844e-01 DIIS
	Occupation by irrep:
	         A1    A2    B1    B2 
	DOCC [     3,    0,    1,    1 ]

   @RHF iter   3:   -75.76855240013714   -4.35561e+00   5.02208e-01 DIIS
   @RHF iter   4:   -76.00576704161057   -2.37215e-01   1.71482e-02 DIIS
   @RHF iter   5:   -76.02253898099502   -1.67719e-02   7.68569e-03 DIIS
   @RHF iter   6:   -76.02290576951782   -3.66789e-04   1.21542e-03 DIIS
   @RHF iter   7:   -76.02294161622666   -3.58467e-05   5.11813e-04 DIIS
   @RHF iter   8:   -76.02294266406352   -1.04784e-06   8.04111e-05 DIIS
   @RHF iter   9:   -76.02294272594276   -6.18792e-08   2.24194e-05 DIIS
   @RHF iter  10:   -76.02294272743728   -1.49453e-09   3.64622e-06 DIIS
   @RHF iter  11:   -76.02294272744246   -5.17275e-12   1.59156e-07 DIIS
   @RHF iter  12:   -76.02294272744268   -2.27374e-13   2.99907e-08 DIIS

  ==> Post-Iterations <==

	Orbital Energies (a.u.)
	-----------------------

	Doubly Occupied:                                                      

	   1A1   -20.561381     2A1    -1.339051     1B2    -0.701081  
	   3A1    -0.568958     1B1    -0.497085  

	Virtual:                                                              

	   4A1     0.211398     2B2     0.303908     3B2     1.001473  
	   5A1     1.085201     6A1     1.132402     2B1     1.168831  
	   4B2     1.294708     7A1     1.415334     1A2     1.804140  
	   8A1     1.814637     3B1     1.923918     9A1     2.567000  
	   5B2     2.575439     6B2     2.800748     2A2     2.974152  
	   4B1     2.989342    10A1     3.371075    11A1     3.703144  
	   7B2     3.923362    12A1     4.105025  

	Final Occupation by Irrep:
	         A1    A2    B1    B2 
	DOCC [     3,    0,    1,    1 ]

  Energy converged.

  @RHF Final Energy:   -76.02294272744268

   => Energetics <=

    Nuclear Repulsion Energy =          9.1660239825168262
    One-Electron Energy =            -123.0428190531105486
    Two-Electron Energy =              37.8538523431510328
    DFT Functional Energy =             0.0000000000000000
    Empirical Dispersion Energy =       0.0000000000000000
    Total Energy =                    -76.0229427274426826

  ==> Properties <==

  Nuclear Dipole Moment: (a.u.)
     X:     0.0000      Y:    -0.0000      Z:     0.9826

  Electronic Dipole Moment: (a.u.)
     X:     0.0000      Y:     0.0000      Z:    -0.1197

  Dipole Moment: (a.u.)
     X:     0.0000      Y:    -0.0000      Z:     0.8630     Total:     0.8630

  Dipole Moment: (Debye)
     X:     0.0000      Y:    -0.0000      Z:     2.1935     Total:     2.1935


  Saving occupied orbitals to File 180.

*** tstop() called on lawn-143-215-103-161.lawn.gatech.edu at Fri Apr 27 14:08:04 2012
Module time:
	user time   =       0.07 seconds =       0.00 minutes
	system time =       0.00 seconds =       0.00 minutes
	total time  =          1 seconds =       0.02 minutes
Total time:
	user time   =       1.71 seconds =       0.03 minutes
	system time =       1.40 seconds =       0.02 minutes
	total time  =          8 seconds =       0.13 minutes

*** tstart() called on lawn-143-215-103-161.lawn.gatech.edu
*** at Fri Apr 27 14:08:04 2012


	**************************************************
	* TRANSQT2: Program to transform integrals from  *
	*           the SO basis to the MO basis.        *
	*                                                *
	*            Daniel, David, & Justin             *
	**************************************************


	Input parameters:
	-----------------
	Wave function   =	CCSD
	Backtransform   =	No
	Print Level     =	1
	Print TEIs      =	No
	Reference wfn   =	RHF
	Derivative      =	First
	Delete TEI File =	Yes
	Memory (Mbytes) =	250.0
	Cache Level     =	2
	Cache Type      =	LRU
	Chkpt Parameters:
	--------------------
	Number of irreps     = 4
	Number of SOs        = 25
	Number of MOs        = 25
	Number of active MOs = 25

	Label	# SOs	# FZDC	# DOCC	# SOCC	# VIRT	# FZVR
	-----	-----	------	------	------	------	------
	 A1	   12	    0	    3	    0	    9	    0
	 A2	   2	    0	    0	    0	    2	    0
	 B1	   4	    0	    1	    0	    3	    0
	 B2	   7	    0	    1	    0	    6	    0

	Nuclear Rep. energy (chkpt) =      9.16602398251683
	SCF energy          (chkpt) =    -76.02294272744268

	Presorting SO-basis two-electron integrals.
	Sorting File: SO Ints (pq,rs) nbuckets = 1
	Frozen-core energy =    0.000000000000000
	Starting first half-transformation.
	Sorting half-transformed integrals.
	Starting second half-transformation.
	Two-electron integral transformation complete.

*** tstop() called on lawn-143-215-103-161.lawn.gatech.edu at Fri Apr 27 14:08:04 2012
Module time:
	user time   =       0.01 seconds =       0.00 minutes
	system time =       0.01 seconds =       0.00 minutes
	total time  =          0 seconds =       0.00 minutes
Total time:
	user time   =       1.72 seconds =       0.03 minutes
	system time =       1.41 seconds =       0.02 minutes
	total time  =          8 seconds =       0.13 minutes

*** tstart() called on lawn-143-215-103-161.lawn.gatech.edu
*** at Fri Apr 27 14:08:04 2012


			**************************
			*                        *
			*         CCSORT         *
			*                        *
			**************************


	Input parameters:
	-----------------
	Wave function   =	CCSD
	Reference wfn   =	RHF
	Derivative      =	First
	Memory (Mbytes) =	250.0
	AO Basis        =	NONE
	Make (ab|cd)    =	True
	Make unpacked (ab|cd) =	True
	Cache Level     =	2
	Cache Type      =	LRU
	Local CC        =     No


	Chkpt Parameters:
	--------------------
	Number of irreps     = 4
	Number of MOs        = 25
	Number of active MOs = 25

	Label	# MOs	# FZDC	# DOCC	# SOCC	# VIRT	# FZVR
	-----	-----	------	------	------	------	------
	 A1	   12	    0	    3	    0	    9	    0
	 A2	   2	    0	    0	    0	    2	    0
	 B1	   4	    0	    1	    0	    3	    0
	 B2	   7	    0	    1	    0	    6	    0

	Nuclear Rep. energy (chkpt) =      9.16602398251683
	SCF energy          (chkpt) =    -76.02294272744268

	Size of irrep 0 of <ab|cd> integrals:      0.017 (MW) /      0.135 (MB)
	Size of irrep 1 of <ab|cd> integrals:      0.005 (MW) /      0.041 (MB)
	Size of irrep 2 of <ab|cd> integrals:      0.006 (MW) /      0.049 (MB)
	Size of irrep 3 of <ab|cd> integrals:      0.014 (MW) /      0.115 (MB)
	Total:                                     0.043 (MW) /      0.341 (MB)

	Size of irrep 0 of <ia|bc> integrals:      0.005 (MW) /      0.037 (MB)
	Size of irrep 1 of <ia|bc> integrals:      0.001 (MW) /      0.009 (MB)
	Size of irrep 2 of <ia|bc> integrals:      0.002 (MW) /      0.012 (MB)
	Size of irrep 3 of <ia|bc> integrals:      0.003 (MW) /      0.028 (MB)
	Total:                                     0.011 (MW) /      0.086 (MB)

	Size of irrep 0 of tijab amplitudes:       0.001 (MW) /      0.011 (MB)
	Size of irrep 1 of tijab amplitudes:       0.000 (MW) /      0.001 (MB)
	Size of irrep 2 of tijab amplitudes:       0.000 (MW) /      0.004 (MB)
	Size of irrep 3 of tijab amplitudes:       0.001 (MW) /      0.006 (MB)
	Total:                                     0.003 (MW) /      0.022 (MB)


	Sorting File: A <ij|kl> nbuckets = 1
	Sorting File: B <ab|cd> nbuckets = 1
	Sorting File: B(+) <ab|cd> nbuckets = 1
	Sorting File: C <ia|jb> nbuckets = 1
	Sorting File: D <ij|ab> nbuckets = 1
	Sorting File: E <ai|jk> nbuckets = 1
	Sorting File: F <ia|bc> nbuckets = 1
	Sorting File: F <ai|bc> nbuckets = 1
	One-electron energy          =   -123.04281932670503
	Two-electron (AA) energy     =     14.44735702473396
	Two-electron (BB) energy     =     14.44735702473396
	Two-electron (AB) energy     =     23.40649559201163
	Two-electron energy          =     37.85385261674558
	Frozen-core energy (transqt) =      0.00000000000000
	Reference energy             =    -76.02294272744260

*** tstop() called on lawn-143-215-103-161.lawn.gatech.edu at Fri Apr 27 14:08:04 2012
Module time:
	user time   =       0.03 seconds =       0.00 minutes
	system time =       0.05 seconds =       0.00 minutes
	total time  =          0 seconds =       0.00 minutes
Total time:
	user time   =       1.75 seconds =       0.03 minutes
	system time =       1.46 seconds =       0.02 minutes
	total time  =          8 seconds =       0.13 minutes

*** tstart() called on lawn-143-215-103-161.lawn.gatech.edu
*** at Fri Apr 27 14:08:04 2012

			**************************
			*                        *
			*        CCENERGY        *
			*                        *
			**************************

	Nuclear Rep. energy (chkpt)   =    9.166023982516826
	SCF energy          (chkpt)   =  -76.022942727442683
	Reference energy    (file100) =  -76.022942727442597

	Input parameters:
	-----------------
	Wave function   =     CCSD
	Reference wfn   =     RHF
	Memory (Mbytes) =     250.0
	Maxiter         =     50
	Convergence     =     1.0e-10
	Restart         =     No
	DIIS            =     Yes
	AO Basis        =     NONE
	ABCD            =     NEW
	Cache Level     =     2
	Cache Type      =     LOW
	Print Level     =     1
	Num. of threads =     1
	# Amps to Print =     10
	Print MP2 Amps? =     No
	Analyze T2 Amps =     No
	Print Pair Ener =     No
	Local CC        =     No
	SCS-MP2         =     False
	SCSN-MP2        =     False
	SCS-CCSD        =     False

	            Solving CC Amplitude Equations
	            ------------------------------
  Iter             Energy              RMS        T1Diag      D1Diag    New D1Diag
  ----     ---------------------    ---------   ----------  ----------  ----------
     0        -0.199504006220156    4.636e-11    0.000000    0.000000    0.000000
     1        -0.203883679221800    2.689e-02    0.004415    0.008665    0.008665
     2        -0.207725428136147    9.534e-03    0.005047    0.010058    0.010058
     3        -0.208221335937399    2.681e-03    0.005552    0.011563    0.011563
     4        -0.208226012138035    6.192e-04    0.005604    0.011861    0.011861
     5        -0.208239959199112    1.949e-04    0.005639    0.012044    0.012044
     6        -0.208236327093396    6.141e-05    0.005652    0.012111    0.012111
     7        -0.208235771592823    1.504e-05    0.005656    0.012129    0.012129
     8        -0.208235763248612    2.790e-06    0.005656    0.012131    0.012131
     9        -0.208235690219136    6.564e-07    0.005656    0.012131    0.012131
    10        -0.208235709074118    1.384e-07    0.005656    0.012131    0.012131
    11        -0.208235707634658    2.706e-08    0.005656    0.012131    0.012131
    12        -0.208235708189226    4.379e-09    0.005656    0.012131    0.012131
    13        -0.208235708087102    9.656e-10    0.005656    0.012131    0.012131
    14        -0.208235708078389    1.773e-10    0.005656    0.012131    0.012131
    15        -0.208235708076704    4.605e-11    0.005656    0.012131    0.012131

	Iterations converged.


	Largest TIA Amplitudes:
	          2   0         0.0104323175
	          3  11        -0.0065456109
	          4  14        -0.0062450402
	          4  18         0.0052212208
	          4  16         0.0045986051
	          1   2         0.0042996548
	          2   5         0.0039394162
	          1   0        -0.0029165687
	          1   7         0.0023786972
	          2   1         0.0022535270

	Largest TIjAb Amplitudes:
	  3   3  11  11        -0.0518796276
	  4   4  14  14        -0.0379246361
	  2   2   2   2        -0.0294934802
	  4   4  15  15        -0.0286548832
	  2   3   2  11         0.0249912268
	  3   2  11   2         0.0249912268
	  3   4  11  16        -0.0247855674
	  4   3  16  11        -0.0247855674
	  4   4  16  16        -0.0246442492
	  3   4  11  14        -0.0242044000

	SCF energy       (chkpt)              =  -76.022942727442683
	Reference energy (file100)            =  -76.022942727442597

	Opposite-spin MP2 correlation energy  =   -0.149329780411044
	Same-spin MP2 correlation energy      =   -0.050174225809112
	MP2 correlation energy                =   -0.199504006220156
      * MP2 total energy                      =  -76.222446733662750

	Opposite-spin CCSD correlation energy =   -0.163672921442115
	Same-spin CCSD correlation energy     =   -0.044562786564907
	CCSD correlation energy               =   -0.208235708076704
      * CCSD total energy                     =  -76.231178435519297


*** tstop() called on lawn-143-215-103-161.lawn.gatech.edu at Fri Apr 27 14:08:07 2012
Module time:
	user time   =       0.38 seconds =       0.01 minutes
	system time =       0.43 seconds =       0.01 minutes
	total time  =          3 seconds =       0.05 minutes
Total time:
	user time   =       2.13 seconds =       0.04 minutes
	system time =       1.89 seconds =       0.03 minutes
	total time  =         11 seconds =       0.18 minutes

*** tstart() called on lawn-143-215-103-161.lawn.gatech.edu
*** at Fri Apr 27 14:08:07 2012


			**************************
			*                        *
			*         CCHBAR         *
			*                        *
			**************************


[...]
    12        -0.208235684744666    4.388e-09    0.005656    0.012132    0.012132
    13        -0.208235684642292    9.732e-10    0.005656    0.012132    0.012132
    14        -0.208235684633563    1.834e-10    0.005656    0.012132    0.012132
    15        -0.208235684631954    5.037e-11    0.005656    0.012132    0.012132

	Iterations converged.


	Largest TIA Amplitudes:
	          3   0         0.0104322853
	          4  15        -0.0065456498
	          2   1        -0.0062450597
	          2  10        -0.0052203517
	          2   5        -0.0045985780
	          1   4         0.0042993526
	          3   8         0.0039322499
	          1   0        -0.0029163221
	          1  12         0.0023782108
	          3   3         0.0022527613

	Largest TIjAb Amplitudes:
	  4   4  15  15        -0.0518795189
	  2   2   1   1        -0.0379219421
	  3   3   4   4        -0.0294885723
	  2   2   2   2        -0.0286509282
	  3   4   4  15         0.0249884320
	  4   3  15   4         0.0249884320
	  2   4   5  15         0.0247845686
	  4   2  15   5         0.0247845686
	  2   2   5   5        -0.0246432152
	  2   4   1  15        -0.0242034042

	SCF energy       (chkpt)              =  -76.022935111849463
	Reference energy (file100)            =  -76.022935111849506

	Opposite-spin MP2 correlation energy  =   -0.149329737793041
	Same-spin MP2 correlation energy      =   -0.050174160632067
	MP2 correlation energy                =   -0.199503898425109
      * MP2 total energy                      =  -76.222439010274613

	Opposite-spin CCSD correlation energy =   -0.163672956936974
	Same-spin CCSD correlation energy     =   -0.044562727625548
	CCSD correlation energy               =   -0.208235684631954
      * CCSD total energy                     =  -76.231170796481464


*** tstop() called on lawn-143-215-103-161.lawn.gatech.edu at Fri Apr 27 14:08:39 2012
Module time:
	user time   =       0.41 seconds =       0.01 minutes
	system time =       0.40 seconds =       0.01 minutes
	total time  =          2 seconds =       0.03 minutes
Total time:
	user time   =      10.69 seconds =       0.18 minutes
	system time =       9.19 seconds =       0.15 minutes
	total time  =         43 seconds =       0.72 minutes

  //>>>>>>>>>>>>>>>>>>>>>>>>>>>>>>>>>>>//
  //    Loading displacement 8 of 8    //
  //<<<<<<<<<<<<<<<<<<<<<<<<<<<<<<<<<<<//

*** tstart() called on lawn-143-215-103-161.lawn.gatech.edu
*** at Fri Apr 27 14:08:39 2012


         ---------------------------------------------------------
                                   SCF
            by Justin Turney, Rob Parrish, and Andy Simmonett
                              RHF Reference
                        1 Threads,    250 MiB Core
         ---------------------------------------------------------

  ==> Geometry <==

    Molecular point group: c2v

    Geometry (in Angstrom), charge = 0, multiplicity = 1:

       Center              X                  Y                   Z       
    ------------   -----------------  -----------------  -----------------
           O          0.000000000000     0.000000000000    -0.066066281293
           H          0.000000000000    -0.757445761440     0.524259913618
           H          0.000000000000     0.757445761440     0.524259913618

  Running in c2v symmetry.

  Nuclear repulsion =    9.166023982516826

  Charge       = 0
  Multiplicity = 1
  Electrons    = 10
  Nalpha       = 5
  Nbeta        = 5

  ==> Algorithm <==

  SCF Algorithm Type is PK.
  DIIS enabled.
  MOM disabled.
  Fractional occupation disabled.
  Guess Type is CORE.
  Energy threshold   = 1.00e-10
  Density threshold  = 1.00e-08
  Integral threshold = 0.00e+00

  ==> Primary Basis <==

  Basis Set: 6-31G**
    Number of shells: 12
    Number of basis function: 25
    Number of Cartesian functions: 25
    Spherical Harmonics?: false
    Max angular momentum: 2

  ==> Pre-Iterations <==

  Minimum eigenvalue in the overlap matrix is 2.1994436524E-02.
  Using Symmetric Orthogonalization.
  SCF Guess: Core (One-Electron) Hamiltonian.

  Initial RHF energy:   -58.65053211093971

   -------------------------------------------------------
    Irrep   Nso     Nmo     Nalpha   Nbeta   Ndocc  Nsocc
   -------------------------------------------------------
     A1        12      12       3       3       3       0
     A2         2       2       0       0       0       0
     B1         4       4       1       1       1       0
     B2         7       7       1       1       1       0
   -------------------------------------------------------
    Total      25      25       5       5       5       0
   -------------------------------------------------------

  ==> Integral Setup <==

 MINTS: Wrapper to libmints.
   by Justin Turney

   Calculation information:
      Number of atoms:                   3
      Number of AO shells:              12
      Number of SO shells:               9
      Number of primitives:             25
      Number of atomic orbitals:        25
      Number of basis functions:        25

      Number of irreps:                  4
      Number of functions per irrep: [  12    2    4    7 ]

      Overlap, kinetic, potential, dipole, and quadrupole integrals
        stored in file 35.

      Computing two-electron integrals...done
      Computed 13617 non-zero two-electron integrals.
        Stored in file 33.

  ==> Iterations <==

                        Total Energy        Delta E     Density RMS

   @RHF iter   1:   -68.27595647098008   -9.62542e+00   0.00000e+00 
	Occupation by irrep:
	         A1    A2    B1    B2 
	DOCC [     4,    0,    0,    1 ]

   @RHF iter   2:   -71.41294357538075   -3.13699e+00   5.27844e-01 DIIS
	Occupation by irrep:
	         A1    A2    B1    B2 
	DOCC [     3,    0,    1,    1 ]

   @RHF iter   3:   -75.76855240013728   -4.35561e+00   5.02208e-01 DIIS
   @RHF iter   4:   -76.00576704161071   -2.37215e-01   1.71482e-02 DIIS
   @RHF iter   5:   -76.02253898099514   -1.67719e-02   7.68569e-03 DIIS
   @RHF iter   6:   -76.02290576951793   -3.66789e-04   1.21542e-03 DIIS
   @RHF iter   7:   -76.02294161622677   -3.58467e-05   5.11813e-04 DIIS
   @RHF iter   8:   -76.02294266406366   -1.04784e-06   8.04111e-05 DIIS
   @RHF iter   9:   -76.02294272594287   -6.18792e-08   2.24194e-05 DIIS
   @RHF iter  10:   -76.02294272743748   -1.49461e-09   3.64622e-06 DIIS
   @RHF iter  11:   -76.02294272744257   -5.08749e-12   1.59156e-07 DIIS
   @RHF iter  12:   -76.02294272744277   -1.98952e-13   2.99907e-08 DIIS

  ==> Post-Iterations <==

	Orbital Energies (a.u.)
	-----------------------

	Doubly Occupied:                                                      

	   1A1   -20.561381     2A1    -1.339051     1B2    -0.701081  
	   3A1    -0.568958     1B1    -0.497085  

	Virtual:                                                              

	   4A1     0.211398     2B2     0.303908     3B2     1.001473  
	   5A1     1.085201     6A1     1.132402     2B1     1.168831  
	   4B2     1.294708     7A1     1.415334     1A2     1.804140  
	   8A1     1.814637     3B1     1.923918     9A1     2.567000  
	   5B2     2.575439     6B2     2.800748     2A2     2.974152  
	   4B1     2.989342    10A1     3.371075    11A1     3.703144  
	   7B2     3.923362    12A1     4.105025  

	Final Occupation by Irrep:
	         A1    A2    B1    B2 
	DOCC [     3,    0,    1,    1 ]

  Energy converged.

  @RHF Final Energy:   -76.02294272744277

   => Energetics <=

    Nuclear Repulsion Energy =          9.1660239825168262
    One-Electron Energy =            -123.0428190531107049
    Two-Electron Energy =              37.8538523431511038
    DFT Functional Energy =             0.0000000000000000
    Empirical Dispersion Energy =       0.0000000000000000
    Total Energy =                    -76.0229427274427820

  ==> Properties <==

  Nuclear Dipole Moment: (a.u.)
     X:     0.0000      Y:    -0.0000      Z:     0.9826

  Electronic Dipole Moment: (a.u.)
     X:     0.0000      Y:     0.0000      Z:    -0.1197

  Dipole Moment: (a.u.)
     X:     0.0000      Y:    -0.0000      Z:     0.8630     Total:     0.8630

  Dipole Moment: (Debye)
     X:     0.0000      Y:    -0.0000      Z:     2.1935     Total:     2.1935


  Saving occupied orbitals to File 180.

*** tstop() called on lawn-143-215-103-161.lawn.gatech.edu at Fri Apr 27 14:08:39 2012
Module time:
	user time   =       0.07 seconds =       0.00 minutes
	system time =       0.01 seconds =       0.00 minutes
	total time  =          0 seconds =       0.00 minutes
Total time:
	user time   =      10.76 seconds =       0.18 minutes
	system time =       9.21 seconds =       0.15 minutes
	total time  =         43 seconds =       0.72 minutes

*** tstart() called on lawn-143-215-103-161.lawn.gatech.edu
*** at Fri Apr 27 14:08:39 2012


	**************************************************
	* TRANSQT2: Program to transform integrals from  *
	*           the SO basis to the MO basis.        *
	*                                                *
	*            Daniel, David, & Justin             *
	**************************************************


	Input parameters:
	-----------------
	Wave function   =	CCSD
	Backtransform   =	No
	Print Level     =	1
	Print TEIs      =	No
	Reference wfn   =	RHF
	Derivative      =	None
	Delete TEI File =	Yes
	Memory (Mbytes) =	250.0
	Cache Level     =	2
	Cache Type      =	LRU
	Chkpt Parameters:
	--------------------
	Number of irreps     = 4
	Number of SOs        = 25
	Number of MOs        = 25
	Number of active MOs = 25

	Label	# SOs	# FZDC	# DOCC	# SOCC	# VIRT	# FZVR
	-----	-----	------	------	------	------	------
	 A1	   12	    0	    3	    0	    9	    0
	 A2	   2	    0	    0	    0	    2	    0
	 B1	   4	    0	    1	    0	    3	    0
	 B2	   7	    0	    1	    0	    6	    0

	Nuclear Rep. energy (chkpt) =      9.16602398251683
	SCF energy          (chkpt) =    -76.02294272744277

	Presorting SO-basis two-electron integrals.
	Sorting File: SO Ints (pq,rs) nbuckets = 1
	Frozen-core energy =    0.000000000000000
	Starting first half-transformation.
	Sorting half-transformed integrals.
	Starting second half-transformation.
	Two-electron integral transformation complete.

*** tstop() called on lawn-143-215-103-161.lawn.gatech.edu at Fri Apr 27 14:08:39 2012
Module time:
	user time   =       0.01 seconds =       0.00 minutes
	system time =       0.01 seconds =       0.00 minutes
	total time  =          0 seconds =       0.00 minutes
Total time:
	user time   =      10.77 seconds =       0.18 minutes
	system time =       9.22 seconds =       0.15 minutes
	total time  =         43 seconds =       0.72 minutes

*** tstart() called on lawn-143-215-103-161.lawn.gatech.edu
*** at Fri Apr 27 14:08:39 2012


			**************************
			*                        *
			*         CCSORT         *
			*                        *
			**************************


	Input parameters:
	-----------------
	Wave function   =	CCSD
	Reference wfn   =	RHF
	Derivative      =	None
	Memory (Mbytes) =	250.0
	AO Basis        =	NONE
	Make (ab|cd)    =	True
	Make unpacked (ab|cd) =	False
	Cache Level     =	2
	Cache Type      =	LRU
	Local CC        =     No


	Chkpt Parameters:
	--------------------
	Number of irreps     = 4
	Number of MOs        = 25
	Number of active MOs = 25

	Label	# MOs	# FZDC	# DOCC	# SOCC	# VIRT	# FZVR
	-----	-----	------	------	------	------	------
	 A1	   12	    0	    3	    0	    9	    0
	 A2	   2	    0	    0	    0	    2	    0
	 B1	   4	    0	    1	    0	    3	    0
	 B2	   7	    0	    1	    0	    6	    0

	Nuclear Rep. energy (chkpt) =      9.16602398251683
	SCF energy          (chkpt) =    -76.02294272744277

	Size of irrep 0 of <ab|cd> integrals:      0.017 (MW) /      0.135 (MB)
	Size of irrep 1 of <ab|cd> integrals:      0.005 (MW) /      0.041 (MB)
	Size of irrep 2 of <ab|cd> integrals:      0.006 (MW) /      0.049 (MB)
	Size of irrep 3 of <ab|cd> integrals:      0.014 (MW) /      0.115 (MB)
	Total:                                     0.043 (MW) /      0.341 (MB)

	Size of irrep 0 of <ia|bc> integrals:      0.005 (MW) /      0.037 (MB)
	Size of irrep 1 of <ia|bc> integrals:      0.001 (MW) /      0.009 (MB)
	Size of irrep 2 of <ia|bc> integrals:      0.002 (MW) /      0.012 (MB)
	Size of irrep 3 of <ia|bc> integrals:      0.003 (MW) /      0.028 (MB)
	Total:                                     0.011 (MW) /      0.086 (MB)

	Size of irrep 0 of tijab amplitudes:       0.001 (MW) /      0.011 (MB)
	Size of irrep 1 of tijab amplitudes:       0.000 (MW) /      0.001 (MB)
	Size of irrep 2 of tijab amplitudes:       0.000 (MW) /      0.004 (MB)
	Size of irrep 3 of tijab amplitudes:       0.001 (MW) /      0.006 (MB)
	Total:                                     0.003 (MW) /      0.022 (MB)


	Sorting File: A <ij|kl> nbuckets = 1
	Sorting File: B(+) <ab|cd> nbuckets = 1
	Sorting File: C <ia|jb> nbuckets = 1
	Sorting File: D <ij|ab> nbuckets = 1
	Sorting File: E <ai|jk> nbuckets = 1
	Sorting File: F <ia|bc> nbuckets = 1
	One-electron energy          =   -123.04281932670523
	Two-electron (AA) energy     =     14.44735702473395
	Two-electron (BB) energy     =     14.44735702473395
	Two-electron (AB) energy     =     23.40649559201166
	Two-electron energy          =     37.85385261674561
	Frozen-core energy (transqt) =      0.00000000000000
	Reference energy             =    -76.02294272744280

*** tstop() called on lawn-143-215-103-161.lawn.gatech.edu at Fri Apr 27 14:08:39 2012
Module time:
	user time   =       0.02 seconds =       0.00 minutes
	system time =       0.03 seconds =       0.00 minutes
	total time  =          0 seconds =       0.00 minutes
Total time:
	user time   =      10.79 seconds =       0.18 minutes
	system time =       9.25 seconds =       0.15 minutes
	total time  =         43 seconds =       0.72 minutes

*** tstart() called on lawn-143-215-103-161.lawn.gatech.edu
*** at Fri Apr 27 14:08:39 2012

			**************************
			*                        *
			*        CCENERGY        *
			*                        *
			**************************

	Nuclear Rep. energy (chkpt)   =    9.166023982516826
	SCF energy          (chkpt)   =  -76.022942727442768
	Reference energy    (file100) =  -76.022942727442796

	Input parameters:
	-----------------
	Wave function   =     CCSD
	Reference wfn   =     RHF
	Memory (Mbytes) =     250.0
	Maxiter         =     50
	Convergence     =     1.0e-10
	Restart         =     No
	DIIS            =     Yes
	AO Basis        =     NONE
	ABCD            =     NEW
	Cache Level     =     2
	Cache Type      =     LOW
	Print Level     =     1
	Num. of threads =     1
	# Amps to Print =     10
	Print MP2 Amps? =     No
	Analyze T2 Amps =     No
	Print Pair Ener =     No
	Local CC        =     No
	SCS-MP2         =     False
	SCSN-MP2        =     False
	SCS-CCSD        =     False

	            Solving CC Amplitude Equations
	            ------------------------------
  Iter             Energy              RMS        T1Diag      D1Diag    New D1Diag
  ----     ---------------------    ---------   ----------  ----------  ----------
     0        -0.199504006220156    5.037e-11    0.000000    0.000000    0.000000
     1        -0.203883679221800    2.689e-02    0.004415    0.008665    0.008665
     2        -0.207725428136147    9.534e-03    0.005047    0.010058    0.010058
     3        -0.208221335937399    2.681e-03    0.005552    0.011563    0.011563
     4        -0.208226012138035    6.192e-04    0.005604    0.011861    0.011861
     5        -0.208239959199112    1.949e-04    0.005639    0.012044    0.012044
     6        -0.208236327093396    6.141e-05    0.005652    0.012111    0.012111
     7        -0.208235771592824    1.504e-05    0.005656    0.012129    0.012129
     8        -0.208235763248612    2.790e-06    0.005656    0.012131    0.012131
     9        -0.208235690219136    6.564e-07    0.005656    0.012131    0.012131
    10        -0.208235709074118    1.384e-07    0.005656    0.012131    0.012131
    11        -0.208235707634658    2.706e-08    0.005656    0.012131    0.012131
    12        -0.208235708189226    4.379e-09    0.005656    0.012131    0.012131
    13        -0.208235708087102    9.656e-10    0.005656    0.012131    0.012131
    14        -0.208235708078389    1.773e-10    0.005656    0.012131    0.012131
    15        -0.208235708076704    4.605e-11    0.005656    0.012131    0.012131

	Iterations converged.


	Largest TIA Amplitudes:
	          2   0         0.0104323175
	          3  11        -0.0065456109
	          4  14        -0.0062450402
	          4  18         0.0052212208
	          4  16         0.0045986051
	          1   2         0.0042996548
	          2   5         0.0039394162
	          1   0        -0.0029165687
	          1   7         0.0023786972
	          2   1         0.0022535270

	Largest TIjAb Amplitudes:
	  3   3  11  11        -0.0518796276
	  4   4  14  14        -0.0379246361
	  2   2   2   2        -0.0294934802
	  4   4  15  15        -0.0286548832
	  2   3   2  11         0.0249912268
	  3   2  11   2         0.0249912268
	  3   4  11  16        -0.0247855674
	  4   3  16  11        -0.0247855674
	  4   4  16  16        -0.0246442492
	  3   4  11  14        -0.0242044000

	SCF energy       (chkpt)              =  -76.022942727442768
	Reference energy (file100)            =  -76.022942727442796

	Opposite-spin MP2 correlation energy  =   -0.149329780411044
	Same-spin MP2 correlation energy      =   -0.050174225809112
	MP2 correlation energy                =   -0.199504006220156
      * MP2 total energy                      =  -76.222446733662949

	Opposite-spin CCSD correlation energy =   -0.163672921442115
	Same-spin CCSD correlation energy     =   -0.044562786564907
	CCSD correlation energy               =   -0.208235708076704
      * CCSD total energy                     =  -76.231178435519496


*** tstop() called on lawn-143-215-103-161.lawn.gatech.edu at Fri Apr 27 14:08:40 2012
Module time:
	user time   =       0.35 seconds =       0.01 minutes
	system time =       0.40 seconds =       0.01 minutes
	total time  =          1 seconds =       0.02 minutes
Total time:
	user time   =      11.15 seconds =       0.19 minutes
	system time =       9.65 seconds =       0.16 minutes
	total time  =         44 seconds =       0.73 minutes

-------------------------------------------------------------

  Computing second-derivative from energies using projected, 
  symmetry-adapted, cartesian coordinates (fd_freq_0).
	8 energies passed in, including the reference energy.
	Using 3-point formula.
	Energy without displacement:  -76.2311784355
	Check energies below for precision!
	    1 :       -76.2311753852
	    2 :       -76.2311748188
	    3 :       -76.2311727681
	    4 :       -76.2311736854
	    5 :       -76.2311645012
	    6 :       -76.2311642933
	    7 :       -76.2311707965
	    8 :       -76.2311784355


	  Irrep      Harmonic Frequency   
	                  (cm-1)          
	-----------------------------------------------
	     A1         1700.2852  
	     A1         3894.4958  
	     B2         4018.5429  
	-----------------------------------------------

	Normal Modes (mass-weighted).
	Molecular mass is   18.01056 amu.
	Frequencies in cm^-1; force constants in au.

   Frequency:       1700.29
   Force constant:   0.1094
	     X       Y       Z 	
  O 	   0.000   0.000  -0.068
  H 	   0.000   0.410   0.540
  H 	   0.000  -0.410   0.540

   Frequency:       3894.50
   Force constant:   0.5740
	     X       Y       Z 	
  O 	   0.000   0.000   0.049
  H 	   0.000   0.573  -0.386
  H 	   0.000  -0.573  -0.386

   Frequency:       4018.54
   Force constant:   0.6111
	     X       Y       Z 	
  O 	   0.000   0.067   0.000
  H 	   0.000  -0.535   0.417
  H 	   0.000  -0.535  -0.417

-------------------------------------------------------------

*** PSI4 exiting successfully. Buy a developer a beer!
