    -----------------------------------------------------------------------
          PSI4: An Open-Source Ab Initio Electronic Structure Package
                              PSI 4.0.0-beta1 Driver

               Git: Rev 8268e5ba0276eef671d5bc4a44cf66fa46407463

    J. M. Turney, A. C. Simmonett, R. M. Parrish, E. G. Hohenstein,
    F. A. Evangelista, J. T. Fermann, B. J. Mintz, L. A. Burns, J. J. Wilke,
    M. L. Abrams, N. J. Russ, M. L. Leininger, C. L. Janssen, E. T. Seidl,
    W. D. Allen, H. F. Schaefer, R. A. King, E. F. Valeev, C. D. Sherrill,
    and T. D. Crawford, WIREs Comput. Mol. Sci., (2011) (doi: 10.1002/wcms.93)

                         Additional Contributions by
    A. E. DePrince, M. Saitow, U. Bozkaya, A. Yu. Sokolov
    -----------------------------------------------------------------------


    Using LocalCommunicator (Number of processes = 1)

    Memory level set to 256.000 MB

  ==> Input File <==

--------------------------------------------------------------------------
#! Single-point gradient, analytic and via finite-differences of 2-1A1 state of H2O with EOM-CCSD

memory 250 mb

molecule h2o {
  0 1
  H -0.107055195862289   0.000000000000000  -1.832806614599657
  O -0.107055195862289   0.000000000000000   0.094714436481352
  H  1.806098405595803   0.000000000000000   0.329620161376194
  units bohr
}

set {
  basis DZ
  roots_per_irrep [1, 0, 0, 0]
}

gradient('eom-ccsd')
analytic_grad = PsiMod.get_gradient()

gradient('eom-ccsd', dertype=0)
findif_grad = PsiMod.get_gradient()

compare_matrices(analytic_grad, findif_grad, 5, "RHF-EOM-CCSD finite-diff. (3-pt.) vs. analytic gradient to 10^-5") #TEST

# Use 5-pt. formula
set findif points 5
gradient('eom-ccsd', dertype=0)
findif_grad = PsiMod.get_gradient()

compare_matrices(analytic_grad, findif_grad, 7, "RHF-EOM-CCSD finite-diff. (5-pt.) vs. analytic gradient to 10^-7") #TEST
--------------------------------------------------------------------------

  Memory set to 250.000 MiB by Python script.

*** tstart() called on lawn-143-215-103-161.lawn.gatech.edu
*** at Fri Apr 27 14:22:51 2012


         ---------------------------------------------------------
                                   SCF
            by Justin Turney, Rob Parrish, and Andy Simmonett
                              RHF Reference
                        1 Threads,    250 MiB Core
         ---------------------------------------------------------

  ==> Geometry <==

    Molecular point group: c2v

    Geometry (in Bohr), charge = 0, multiplicity = 1:

       Center              X                  Y                   Z       
    ------------   -----------------  -----------------  -----------------
           H          0.000000000000    -1.443627918148     1.134274838578
           O         -0.000000000000     0.000000000000    -0.142939253226
           H         -0.000000000000     1.443627918148     1.134274838578

  Running in c2v symmetry.

  Nuclear repulsion =    8.647166888151858

  Charge       = 0
  Multiplicity = 1
  Electrons    = 10
  Nalpha       = 5
  Nbeta        = 5

  ==> Algorithm <==

  SCF Algorithm Type is PK.
  DIIS enabled.
  MOM disabled.
  Fractional occupation disabled.
  Guess Type is CORE.
  Energy threshold   = 1.00e-08
  Density threshold  = 1.00e-08
  Integral threshold = 0.00e+00

  ==> Primary Basis <==

  Basis Set: DZ
    Number of shells: 10
    Number of basis function: 14
    Number of Cartesian functions: 14
    Spherical Harmonics?: true
    Max angular momentum: 1

  ==> Pre-Iterations <==

  Minimum eigenvalue in the overlap matrix is 6.0756533921E-02.
  Using Symmetric Orthogonalization.
  SCF Guess: Core (One-Electron) Hamiltonian.

  Initial RHF energy:   -58.13537065668439

   -------------------------------------------------------
    Irrep   Nso     Nmo     Nalpha   Nbeta   Ndocc  Nsocc
   -------------------------------------------------------
     A1         8       8       3       3       3       0
     A2         0       0       0       0       0       0
     B1         2       2       1       1       1       0
     B2         4       4       1       1       1       0
   -------------------------------------------------------
    Total      14      14       5       5       5       0
   -------------------------------------------------------

  ==> Integral Setup <==

 MINTS: Wrapper to libmints.
   by Justin Turney

   Calculation information:
      Number of atoms:                   3
      Number of AO shells:              10
      Number of SO shells:               8
      Number of primitives:             22
      Number of atomic orbitals:        14
      Number of basis functions:        14

      Number of irreps:                  4
      Number of functions per irrep: [   8    0    2    4 ]

      Overlap, kinetic, potential, dipole, and quadrupole integrals
        stored in file 35.

      Computing two-electron integrals...done
      Computed 1709 non-zero two-electron integrals.
        Stored in file 33.

  ==> Iterations <==

                        Total Energy        Delta E     Density RMS

   @RHF iter   1:   -70.46510942302993   -1.23297e+01   0.00000e+00 
   @RHF iter   2:   -72.17927707596870   -1.71417e+00   5.82138e-01 DIIS
   @RHF iter   3:   -75.55268429587163   -3.37341e+00   4.98777e-01 DIIS
   @RHF iter   4:   -75.98121663863064   -4.28532e-01   4.47928e-02 DIIS
   @RHF iter   5:   -75.99777128519624   -1.65546e-02   1.19479e-02 DIIS
   @RHF iter   6:   -75.99822035260168   -4.49067e-04   2.58438e-03 DIIS
   @RHF iter   7:   -75.99823698376275   -1.66312e-05   5.60447e-04 DIIS
   @RHF iter   8:   -75.99823736185490   -3.78092e-07   7.71615e-05 DIIS
   @RHF iter   9:   -75.99823737571646   -1.38616e-08   1.49177e-05 DIIS
   @RHF iter  10:   -75.99823737624389   -5.27436e-10   3.10978e-06 DIIS
   @RHF iter  11:   -75.99823737629534   -5.14433e-11   8.98692e-07 DIIS
   @RHF iter  12:   -75.99823737629609   -7.53175e-13   1.46573e-07 DIIS
   @RHF iter  13:   -75.99823737629605    4.26326e-14   1.49548e-08 DIIS

  ==> Post-Iterations <==

	Orbital Energies (a.u.)
	-----------------------

	Doubly Occupied:                                                      

	   1A1   -20.575249     2A1    -1.337913     1B2    -0.670935  
	   3A1    -0.571230     1B1    -0.506342  

	Virtual:                                                              

	   4A1     0.198874     2B2     0.286140     2B1     0.863657  
	   5A1     0.905736     3B2     0.920725     4B2     1.159000  
	   6A1     1.179815     7A1     1.683365     8A1    43.310472  

	Final Occupation by Irrep:
	         A1    A2    B1    B2 
	DOCC [     3,    0,    1,    1 ]

  Energy converged.

  @RHF Final Energy:   -75.99823737629605

   => Energetics <=

    Nuclear Repulsion Energy =          8.6471668881518582
    One-Electron Energy =            -121.9674700801981402
    Two-Electron Energy =              37.3220658157502498
    DFT Functional Energy =             0.0000000000000000
    Empirical Dispersion Energy =       0.0000000000000000
    Total Energy =                    -75.9982373762960322

  ==> Properties <==

  Nuclear Dipole Moment: (a.u.)
     X:     0.0000      Y:     0.0000      Z:     1.1250

  Electronic Dipole Moment: (a.u.)
     X:     0.0000      Y:     0.0000      Z:    -0.0134

  Dipole Moment: (a.u.)
     X:     0.0000      Y:     0.0000      Z:     1.1116     Total:     1.1116

  Dipole Moment: (Debye)
     X:     0.0000      Y:     0.0000      Z:     2.8254     Total:     2.8254


  Saving occupied orbitals to File 180.

*** tstop() called on lawn-143-215-103-161.lawn.gatech.edu at Fri Apr 27 14:22:51 2012
Module time:
	user time   =       0.04 seconds =       0.00 minutes
	system time =       0.01 seconds =       0.00 minutes
	total time  =          0 seconds =       0.00 minutes
Total time:
	user time   =       0.04 seconds =       0.00 minutes
	system time =       0.01 seconds =       0.00 minutes
	total time  =          0 seconds =       0.00 minutes

*** tstart() called on lawn-143-215-103-161.lawn.gatech.edu
*** at Fri Apr 27 14:22:51 2012


	**************************************************
	* TRANSQT2: Program to transform integrals from  *
	*           the SO basis to the MO basis.        *
	*                                                *
	*            Daniel, David, & Justin             *
	**************************************************


	Input parameters:
	-----------------
	Wave function   =	CCSD
	Backtransform   =	No
	Print Level     =	1
	Print TEIs      =	No
	Reference wfn   =	RHF
	Derivative      =	First
	Delete TEI File =	Yes
	Memory (Mbytes) =	250.0
	Cache Level     =	2
	Cache Type      =	LRU
	Chkpt Parameters:
	--------------------
	Number of irreps     = 4
	Number of SOs        = 14
	Number of MOs        = 14
	Number of active MOs = 14

	Label	# SOs	# FZDC	# DOCC	# SOCC	# VIRT	# FZVR
	-----	-----	------	------	------	------	------
	 A1	   8	    0	    3	    0	    5	    0
	 A2	   0	    0	    0	    0	    0	    0
	 B1	   2	    0	    1	    0	    1	    0
	 B2	   4	    0	    1	    0	    3	    0

	Nuclear Rep. energy (chkpt) =      8.64716688815186
	SCF energy          (chkpt) =    -75.99823737629605

	Presorting SO-basis two-electron integrals.
	Sorting File: SO Ints (pq,rs) nbuckets = 1
	Frozen-core energy =    0.000000000000000
	Starting first half-transformation.
	Sorting half-transformed integrals.
	Starting second half-transformation.
	Two-electron integral transformation complete.

*** tstop() called on lawn-143-215-103-161.lawn.gatech.edu at Fri Apr 27 14:22:51 2012
Module time:
	user time   =       0.00 seconds =       0.00 minutes
	system time =       0.00 seconds =       0.00 minutes
	total time  =          0 seconds =       0.00 minutes
Total time:
	user time   =       0.04 seconds =       0.00 minutes
	system time =       0.01 seconds =       0.00 minutes
	total time  =          0 seconds =       0.00 minutes

*** tstart() called on lawn-143-215-103-161.lawn.gatech.edu
*** at Fri Apr 27 14:22:51 2012


			**************************
			*                        *
			*         CCSORT         *
			*                        *
			**************************


	Input parameters:
	-----------------
	Wave function   =	CCSD
	Reference wfn   =	RHF
	Derivative      =	First
	Memory (Mbytes) =	250.0
	AO Basis        =	NONE
	Make (ab|cd)    =	True
	Make unpacked (ab|cd) =	True
	Cache Level     =	2
	Cache Type      =	LRU
	Local CC        =     No


	Chkpt Parameters:
	--------------------
	Number of irreps     = 4
	Number of MOs        = 14
	Number of active MOs = 14

	Label	# MOs	# FZDC	# DOCC	# SOCC	# VIRT	# FZVR
	-----	-----	------	------	------	------	------
	 A1	   8	    0	    3	    0	    5	    0
	 A2	   0	    0	    0	    0	    0	    0
	 B1	   2	    0	    1	    0	    1	    0
	 B2	   4	    0	    1	    0	    3	    0

	Nuclear Rep. energy (chkpt) =      8.64716688815186
	SCF energy          (chkpt) =    -75.99823737629605

	Size of irrep 0 of <ab|cd> integrals:      0.001 (MW) /      0.010 (MB)
	Size of irrep 1 of <ab|cd> integrals:      0.000 (MW) /      0.000 (MB)
	Size of irrep 2 of <ab|cd> integrals:      0.000 (MW) /      0.001 (MB)
	Size of irrep 3 of <ab|cd> integrals:      0.001 (MW) /      0.007 (MB)
	Total:                                     0.002 (MW) /      0.018 (MB)

	Size of irrep 0 of <ia|bc> integrals:      0.001 (MW) /      0.005 (MB)
	Size of irrep 1 of <ia|bc> integrals:      0.000 (MW) /      0.000 (MB)
	Size of irrep 2 of <ia|bc> integrals:      0.000 (MW) /      0.001 (MB)
	Size of irrep 3 of <ia|bc> integrals:      0.000 (MW) /      0.003 (MB)
	Total:                                     0.001 (MW) /      0.010 (MB)

	Size of irrep 0 of tijab amplitudes:       0.000 (MW) /      0.003 (MB)
	Size of irrep 1 of tijab amplitudes:       0.000 (MW) /      0.000 (MB)
	Size of irrep 2 of tijab amplitudes:       0.000 (MW) /      0.000 (MB)
	Size of irrep 3 of tijab amplitudes:       0.000 (MW) /      0.001 (MB)
	Total:                                     0.001 (MW) /      0.005 (MB)


	Sorting File: A <ij|kl> nbuckets = 1
	Sorting File: B <ab|cd> nbuckets = 1
	Sorting File: B(+) <ab|cd> nbuckets = 1
	Sorting File: C <ia|jb> nbuckets = 1
	Sorting File: D <ij|ab> nbuckets = 1
	Sorting File: E <ai|jk> nbuckets = 1
	Sorting File: F <ia|bc> nbuckets = 1
	Sorting File: F <ai|bc> nbuckets = 1
	One-electron energy          =   -121.96747007288015
	Two-electron (AA) energy     =     14.22169875649668
	Two-electron (BB) energy     =     14.22169875649668
	Two-electron (AB) energy     =     23.10036705193552
	Two-electron energy          =     37.32206580843221
	Frozen-core energy (transqt) =      0.00000000000000
	Reference energy             =    -75.99823737629609

*** tstop() called on lawn-143-215-103-161.lawn.gatech.edu at Fri Apr 27 14:22:51 2012
Module time:
	user time   =       0.02 seconds =       0.00 minutes
	system time =       0.04 seconds =       0.00 minutes
	total time  =          0 seconds =       0.00 minutes
Total time:
	user time   =       0.06 seconds =       0.00 minutes
	system time =       0.05 seconds =       0.00 minutes
	total time  =          0 seconds =       0.00 minutes

*** tstart() called on lawn-143-215-103-161.lawn.gatech.edu
*** at Fri Apr 27 14:22:51 2012

			**************************
			*                        *
			*        CCENERGY        *
			*                        *
			**************************

	Nuclear Rep. energy (chkpt)   =    8.647166888151858
	SCF energy          (chkpt)   =  -75.998237376296046
	Reference energy    (file100) =  -75.998237376296089

	Input parameters:
	-----------------
	Wave function   =     CCSD
	Reference wfn   =     RHF
	Memory (Mbytes) =     250.0
	Maxiter         =     50
	Convergence     =     1.0e-07
	Restart         =     No
	DIIS            =     Yes
	AO Basis        =     NONE
	ABCD            =     NEW
	Cache Level     =     2
	Cache Type      =     LOW
	Print Level     =     1
	Num. of threads =     1
	# Amps to Print =     10
	Print MP2 Amps? =     No
	Analyze T2 Amps =     No
	Print Pair Ener =     No
	Local CC        =     No
	SCS-MP2         =     False
	SCSN-MP2        =     False
	SCS-CCSD        =     False

	            Solving CC Amplitude Equations
	            ------------------------------
  Iter             Energy              RMS        T1Diag      D1Diag    New D1Diag
  ----     ---------------------    ---------   ----------  ----------  ----------
     0        -0.145040822046616    0.000e+00    0.000000    0.000000    0.000000
     1        -0.146520464947368    3.332e-02    0.006269    0.012458    0.012458
     2        -0.150956156898651    1.282e-02    0.007074    0.013723    0.013723
     3        -0.151851171529752    3.894e-03    0.007755    0.014590    0.014590
     4        -0.151900625065895    8.321e-04    0.007763    0.014442    0.014442
     5        -0.151921497603538    2.190e-04    0.007783    0.014420    0.014420
     6        -0.151918722158469    6.144e-05    0.007791    0.014423    0.014423
     7        -0.151917819820042    1.491e-05    0.007794    0.014422    0.014422
     8        -0.151917913320674    3.893e-06    0.007794    0.014422    0.014422
     9        -0.151917790658560    1.013e-06    0.007794    0.014422    0.014422
    10        -0.151917814022563    1.708e-07    0.007794    0.014422    0.014422
    11        -0.151917810348223    4.031e-08    0.007794    0.014422    0.014422

	Iterations converged.


	Largest TIA Amplitudes:
	          3   5        -0.0144215114
	          2   0         0.0120584945
	          4   6         0.0091639294
	          4   7         0.0080250409
	          1   1         0.0061025933
	          2   3         0.0056314251
	          4   8        -0.0046792320
	          1   0         0.0027618322
	          2   1        -0.0019499647
	          1   3         0.0017284732

	Largest TIjAb Amplitudes:
	  3   3   5   5        -0.0570727316
	  4   4   6   6        -0.0553178163
	  2   2   1   1        -0.0464759335
	  4   4   6   8        -0.0356413404
	  4   4   8   6        -0.0356413404
	  2   3   1   5        -0.0351713155
	  3   2   5   1        -0.0351713155
	  4   4   8   8        -0.0339938947
	  2   4   0   6        -0.0300239094
	  4   2   6   0        -0.0300239094

	SCF energy       (chkpt)              =  -75.998237376296046
	Reference energy (file100)            =  -75.998237376296089

	Opposite-spin MP2 correlation energy  =   -0.113743071164573
	Same-spin MP2 correlation energy      =   -0.031297750882043
	MP2 correlation energy                =   -0.145040822046616
      * MP2 total energy                      =  -76.143278198342699

	Opposite-spin CCSD correlation energy =   -0.127799707085075
	Same-spin CCSD correlation energy     =   -0.024118103261564
	CCSD correlation energy               =   -0.151917810348223
      * CCSD total energy                     =  -76.150155186644312


*** tstop() called on lawn-143-215-103-161.lawn.gatech.edu at Fri Apr 27 14:22:52 2012
Module time:
	user time   =       0.21 seconds =       0.00 minutes
	system time =       0.26 seconds =       0.00 minutes
	total time  =          1 seconds =       0.02 minutes
Total time:
	user time   =       0.28 seconds =       0.00 minutes
	system time =       0.31 seconds =       0.01 minutes
	total time  =          1 seconds =       0.02 minutes

*** tstart() called on lawn-143-215-103-161.lawn.gatech.edu
*** at Fri Apr 27 14:22:52 2012


			**************************
			*                        *
			*         CCHBAR         *
			*                        *
			**************************


*** tstop() called on lawn-143-215-103-161.lawn.gatech.edu at Fri Apr 27 14:22:52 2012
Module time:
	user time   =       0.02 seconds =       0.00 minutes
	system time =       0.03 seconds =       0.00 minutes
	total time  =          0 seconds =       0.00 minutes
Total time:
	user time   =       0.30 seconds =       0.01 minutes
	system time =       0.34 seconds =       0.01 minutes
	total time  =          1 seconds =       0.02 minutes

*** tstart() called on lawn-143-215-103-161.lawn.gatech.edu
*** at Fri Apr 27 14:22:52 2012


	**********************************************************
	*  CCEOM: An Equation of Motion Coupled Cluster Program  *
	**********************************************************

	Nuclear Rep. energy (chkpt)   =    8.647166888151858
	SCF energy          (chkpt)   =  -75.998237376296046
	Reference energy    (file100) =  -75.998237376296089
	CCSD energy         (file100) =   -0.151917810348223

	Input parameters:
	-----------------
	Reference wfn   =     RHF
	Reference EOM wfn=     RHF
	Memory (Mbytes) =  250.0
	ABCD            =     NEW
	Cache Level     =    2
	Cache Type      =     LRU
	Num. of threads =     1
	Local CC        =     No


	CCEOM parameters:
	-----------------
	States sought per irrep     = A1 1, A2 0, B1 0, B2 0,
	Max. number of iterations   =    80
	Vectors stored per root     =    12
	Print HbarSS iterations?    =     0
	Excitation range for HBarSS =     2
	Eigenvalue tolerance        = 1.0e-08
	Eigenvalue toleranceSS      = 1.0e-06
	Residual vector tolerance   = 1.0e-06
	Residual vector toleranceSS = 1.0e-06
	Complex tolerance           = 1.0e-12
	Root for properties         =     1
	Sym of state for properties =     A1
	Guess vectors taken from    = SINGLES
	Restart EOM CC3             = NO
	Collapse with last vector   = YES


Symmetry of ground state: A1
Symmetry of excited state: A1
Symmetry of right eigenvector: A1
Seeking states with multiplicity of 1
Obtaining initial guess from singles-singles block of Hbar...Done.

Iter=1    L=1     Root    EOM Energy     Delta E   Res. Norm    Conv?
                     1   0.4930998100   4.93e-01    3.94e-01      N
Iter=2    L=2     Root    EOM Energy     Delta E   Res. Norm    Conv?
                     1   0.4080910244  -8.50e-02    8.41e-02      N
Iter=3    L=3     Root    EOM Energy     Delta E   Res. Norm    Conv?
                     1   0.4043436081  -3.75e-03    3.16e-02      N
Iter=4    L=4     Root    EOM Energy     Delta E   Res. Norm    Conv?
                     1   0.4040780343  -2.66e-04    8.84e-03      N
Iter=5    L=5     Root    EOM Energy     Delta E   Res. Norm    Conv?
                     1   0.4040363643  -4.17e-05    2.53e-03      N
Iter=6    L=6     Root    EOM Energy     Delta E   Res. Norm    Conv?
                     1   0.4040452431   8.88e-06    1.10e-03      N
Iter=7    L=7     Root    EOM Energy     Delta E   Res. Norm    Conv?
                     1   0.4040438859  -1.36e-06    3.18e-04      N
Iter=8    L=8     Root    EOM Energy     Delta E   Res. Norm    Conv?
                     1   0.4040430221  -8.64e-07    9.05e-05      N
Iter=9    L=9     Root    EOM Energy     Delta E   Res. Norm    Conv?
                     1   0.4040428035  -2.19e-07    3.17e-05      N
Iter=10   L=10    Root    EOM Energy     Delta E   Res. Norm    Conv?
                     1   0.4040428270   2.35e-08    8.67e-06      N
Iter=11   L=11    Root    EOM Energy     Delta E   Res. Norm    Conv?
                     1   0.4040428073  -1.97e-08    2.80e-06      N
Iter=12   L=12    Root    EOM Energy     Delta E   Res. Norm    Conv?
                     1   0.4040428153   8.00e-09    1.03e-06      N
Iter=13   L=2     Root    EOM Energy     Delta E   Res. Norm    Conv?
                     1   0.4040428153   1.73e-13    1.03e-06      N
Iter=14   L=3     Root    EOM Energy     Delta E   Res. Norm    Conv?
                     1   0.4040428163   1.01e-09    2.12e-07      Y
Collapsing to only 1 vector(s).

Procedure converged for 1 root(s).
Energy written to chkpt:Etot  -75.7461123703
States per irrep written to chkpt.
EOM CCSD R0 for root 0 =   0.01704703691

Final Energetic Summary for Converged Roots of Irrep A1
                     Excitation Energy              Total Energy
                (eV)     (cm^-1)     (au)             (au)
EOM State 1     10.995    88677.1   0.4040428163   -75.746112370341

Largest components of excited wave function #1:
 RIA (libdpd indices) : (cscf notation)
         2 >   0      :       3a1 >    4a1 :   -0.6767988432
         0 >   0      :       1b2 >    2b2 :    0.0913345935
         0 >   0      :       1b1 >    2b1 :   -0.0399881712
         1 >   0      :       2a1 >    4a1 :    0.0377016915
         2 >   2      :       3a1 >    6a1 :   -0.0349743667
 RIjAb (libdpd indices)     : (cscf notation)
        2   2 >   0   0     :    3a1    3a1 >    4a1    4a1 :    0.1085387957
        2   0 >   0   0     :    3a1    1b2 >    4a1    2b2 :    0.0665796236
        0   2 >   0   0     :    1b2    3a1 >    2b2    4a1 :    0.0665796236
        2   2 >   0   0     :    3a1    3a1 >    2b2    2b2 :    0.0566952190
        2   2 >   0   1     :    3a1    3a1 >    4a1    5a1 :   -0.0549889791

	Putting into environment energy for root of R irrep 1 and root 1.
	Putting into environment CURRENT ENERGY:              -75.7461123703

	Total # of sigma evaluations: 13

*** tstop() called on lawn-143-215-103-161.lawn.gatech.edu at Fri Apr 27 14:22:52 2012
Module time:
	user time   =       0.09 seconds =       0.00 minutes
	system time =       0.07 seconds =       0.00 minutes
	total time  =          0 seconds =       0.00 minutes
Total time:
	user time   =       0.39 seconds =       0.01 minutes
	system time =       0.41 seconds =       0.01 minutes
	total time  =          1 seconds =       0.02 minutes

*** tstart() called on lawn-143-215-103-161.lawn.gatech.edu
*** at Fri Apr 27 14:22:52 2012


			**************************
			*        CCLAMBDA        *
			**************************


	Nuclear Rep. energy (chkpt)   =    8.647166888151858
	Reference           (chkpt)   = 0
	SCF energy          (chkpt)   =  -75.998237376296046
	Reference energy    (CC_INFO) =  -75.998237376296089
	CCSD energy         (CC_INFO) =   -0.151917810348223
	Total CCSD energy   (CC_INFO) =  -76.150155186644312

	Input parameters:
	-----------------
	Maxiter       =      50
	Convergence   = 1.0e-07
	Restart       =     No
	Cache Level   =     2
	Model III     =     No
	DIIS          =     Yes
	AO Basis      =     No
	ABCD            =     NEW
	Local CC        =     No
	Paramaters for left-handed eigenvectors:
	    Irr   Root  Ground-State?    EOM energy        R0
	  1   0     1         No       0.4040428163   0.0170470369
	Labels for eigenvector 1:
	LIA 0 0, Lia 0 0, LIJAB 0 0, Lijab 0 0, LIjAb 0 0, 2LIjAb - LIjbA 0 0
	Deleting old CC_LAMBDA data.
	Symmetry of left-hand state: A1
	Symmetry of left-hand eigenvector: A1
	Initial overlap of initial guess <L|R> =    0.9993310837
	Checking overlap of initial guess <L|R> =    1.0000000000

	          Solving Lambda Equations
	          ------------------------
	Iter     PseudoEnergy or Norm         RMS  
	----     ---------------------     --------
	   0         0.005560993873122    0.000e+00
	   1         0.007897679004137    3.424e-02
	   2         0.007727044006373    7.759e-03
	   3         0.007870518868678    2.603e-03
	   4         0.007863162276791    7.955e-04
	   5         0.007859634531691    2.183e-04
	   6         0.007851986797195    7.715e-05
	   7         0.007850705447083    2.314e-05
	   8         0.007850207872010    7.411e-06
	   9         0.007850153702069    1.888e-06
	  10         0.007850125794360    5.587e-07
	  11         0.007850116657170    2.331e-07
	  12         0.007850115695515    6.288e-08

	Initial  <L|R>  =        0.9858192373
	Normalizing L...
	L0 * R0 =        0.0000000000
	L1 * R1 =        0.9391357482
	L2 * R2 =        0.0608642518
	 <L|R>  =        1.0000000000
	Pseudoenergy or Norm of normalized L =    0.007963037642742

	Largest LIA Amplitudes:
	          2   0        -0.6735918617
	          4   6         0.0919881678
	          3   5        -0.0373785077
	          1   0         0.0354444979
	          2   2        -0.0326422603
	          4   8         0.0265972431
	          2   3         0.0192351356
	          1   2         0.0103561821
	          1   3        -0.0063070253
	          1   1         0.0044117827

	Largest LIjAb Amplitudes:
	  2   2   0   0         0.1111729832
	  2   4   0   6         0.0754258150
	  4   2   6   0         0.0754258150
	  2   2   0   1        -0.0595658020
	  2   2   1   0        -0.0595658020
	  2   2   6   6         0.0544053883
	  2   3   0   5        -0.0419852166
	  3   2   5   0        -0.0419852166
	  2   4   0   8         0.0361400853
	  4   2   8   0         0.0361400853

	Iterations converged.


*** tstop() called on lawn-143-215-103-161.lawn.gatech.edu at Fri Apr 27 14:22:52 2012
Module time:
	user time   =       0.05 seconds =       0.00 minutes
	system time =       0.05 seconds =       0.00 minutes
	total time  =          0 seconds =       0.00 minutes
Total time:
	user time   =       0.44 seconds =       0.01 minutes
	system time =       0.46 seconds =       0.01 minutes
	total time  =          1 seconds =       0.02 minutes

*** tstart() called on lawn-143-215-103-161.lawn.gatech.edu
*** at Fri Apr 27 14:22:52 2012


			**************************
			*                        *
			*        CCDENSITY       *
			*                        *
			**************************


	Input parameters:
	-----------------
	Wave function    = EOM_CCSD
	Reference wfn    =   RHF
	Dertype          = 1
	Tolerance        = 1.0e-14
	Cache Level      = 2
	AO Basis         = No
	OPDM Only        = No
	Relax OPDM       = Yes
	Compute Xi       = Yes
	Use Zeta         = No
	Xi connected     = Yes

	Nuclear Rep. energy (chkpt)   =    8.647166888151858
	SCF energy          (chkpt)   =  -75.998237376296046
	Reference energy    (file100) =  -75.998237376296089
	CCSD energy         (CC_INFO) =   -0.151917810348223
	Total CCSD energy   (CC_INFO) =  -76.150155186644312
	Number of States = 1

	Ground?  State     EOM Energy       R0
	   No     1 A1    0.4040428163   0.01704704
XI_IA amplitudes: Norm=   0.2214531196, Dot=   0.0490414842
XI amplitudes   : Norm=   1.2743863059, Dot=   1.6240604568

*** tstop() called on lawn-143-215-103-161.lawn.gatech.edu at Fri Apr 27 14:22:52 2012
Module time:
	user time   =       0.03 seconds =       0.00 minutes
	system time =       0.03 seconds =       0.00 minutes
	total time  =          0 seconds =       0.00 minutes
Total time:
	user time   =       0.47 seconds =       0.01 minutes
	system time =       0.49 seconds =       0.01 minutes
	total time  =          1 seconds =       0.02 minutes

*** tstart() called on lawn-143-215-103-161.lawn.gatech.edu
*** at Fri Apr 27 14:22:52 2012


			**************************
			*        CCLAMBDA        *
			**************************


	Nuclear Rep. energy (chkpt)   =    8.647166888151858
	Reference           (chkpt)   = 0
	SCF energy          (chkpt)   =  -75.998237376296046
	Reference energy    (CC_INFO) =  -75.998237376296089
	CCSD energy         (CC_INFO) =   -0.151917810348223
	Total CCSD energy   (CC_INFO) =  -76.150155186644312
	Irrep of Zeta       (CC_INFO) = 0

	Input parameters:
	-----------------
	Maxiter       =      50
	Convergence   = 1.0e-07
	Restart       =     No
	Cache Level   =     2
	Model III     =     No
	DIIS          =     Yes
	AO Basis      =     No
	ABCD            =     NEW
	Local CC        =     No
	Paramaters for left-handed eigenvectors:
	    Irr   Root  Ground-State?    EOM energy        R0
	  1   0     1         No       0.0000000000   0.0000000000
	Labels for eigenvector 1:
	ZIA, Zia, ZIJAB, Zijab, ZIjAb, 2ZIjAb - ZIjbA
	Deleting old CC_LAMBDA data.
	Symmetry of left-hand state: A1
	Symmetry of left-hand eigenvector: A1

	          Solving Lambda Equations
	          ------------------------
	Iter     PseudoEnergy or Norm         RMS  
	----     ---------------------     --------
	   0         0.159259726361849    6.288e-08
	   1         0.209424242132569    3.277e-02
	   2         0.224660650902206    1.736e-02
	   3         0.231079691212007    6.372e-03
	   4         0.232534887000910    1.770e-03
	   5         0.232640362889043    3.336e-04
	   6         0.232643768014931    7.482e-05
	   7         0.232644996439149    1.565e-05
	   8         0.232645120023525    2.896e-06
	   9         0.232645144116040    5.008e-07
	  10         0.232645145525140    1.527e-07
	  11         0.232645143968788    2.517e-08

	Largest LIA Amplitudes:
	          2   0        -0.0920330395
	          4   6        -0.0631332834
	          2   1         0.0437026855
	          4   8        -0.0348995236
	          3   5         0.0270728849
	          1   2        -0.0111939534
	          1   3         0.0111772133
	          2   2        -0.0100877742
	          2   3        -0.0100822083
	          1   0        -0.0095633626

	Largest LIjAb Amplitudes:
	  3   3   5   5        -0.0532297449
	  4   4   6   6        -0.0380526104
	  4   4   8   8        -0.0307940016
	  4   4   6   8        -0.0285385269
	  4   4   8   6        -0.0285385269
	  3   4   5   8         0.0212718505
	  4   3   8   5         0.0212718505
	  3   4   5   6         0.0210558775
	  4   3   6   5         0.0210558775
	  1   3   3   5        -0.0188799036

	Iterations converged.

Norm of Zeta:    0.232645143968788

*** tstop() called on lawn-143-215-103-161.lawn.gatech.edu at Fri Apr 27 14:22:52 2012
Module time:
	user time   =       0.05 seconds =       0.00 minutes
	system time =       0.05 seconds =       0.00 minutes
	total time  =          0 seconds =       0.00 minutes
Total time:
	user time   =       0.52 seconds =       0.01 minutes
	system time =       0.54 seconds =       0.01 minutes
	total time  =          1 seconds =       0.02 minutes

*** tstart() called on lawn-143-215-103-161.lawn.gatech.edu
*** at Fri Apr 27 14:22:52 2012


			**************************
			*                        *
			*        CCDENSITY       *
			*                        *
			**************************


	Input parameters:
	-----------------
	Wave function    = EOM_CCSD
	Reference wfn    =  ROHF
	Dertype          = 1
	Tolerance        = 1.0e-14
	Cache Level      = 2
	AO Basis         = No
	OPDM Only        = No
	Relax OPDM       = Yes
	Compute Xi       = No
	Use Zeta         = Yes
	Xi connected     = Yes

	Nuclear Rep. energy (chkpt)   =    8.647166888151858
	SCF energy          (chkpt)   =  -75.998237376296046
	Reference energy    (file100) =  -75.998237376296089
	CCSD energy         (CC_INFO) =   -0.151917810348223
	Total CCSD energy   (CC_INFO) =  -76.150155186644312
	Number of States = 1

	Ground?  State     EOM Energy       R0
	   No     1 A1    0.4040428163   0.01704704

	Energies re-computed from CC density:
	-------------------------------------
	One-electron energy        =    0.953764875462207
	IJKL energy                =    0.055629058267611
	IJKA energy                =   -0.137915049436486
	IJAB energy                =   -0.185298333863352
	IBJA energy                =   -0.452958699449113
	CIAB energy                =   -0.023039076419653
	ABCD energy                =    0.041942231908661
	Total two-electron energy  =   -0.701639868992332
	Total EOM CCSD correlation energy        =    0.252125006469875
	CCSD correlation + EOM excitation energy =    0.252125005955133
	Total EOM CCSD energy                    =  -75.746112369826221

	Virial Theorem Data:
	--------------------
	Kinetic energy (ref)   =   75.854506587784172
	Kinetic energy (corr)  =    0.286949433105789
	Kinetic energy (total) =   76.141456020889962
	-V/T (ref)             =    2.001894822008309
	-V/T (corr)            =    1.529423629466505
	-V/T (total)           =    2.000114250057839

	Energies re-computed from Fock-adjusted CC density:
	---------------------------------------------------
	One-electron energy        =    1.575292070742865
	IJKL energy                =   -6.796913452674954
	IJKA energy                =    1.271804385574844
	IJAB energy                =   -0.185298333863352
	IBJA energy                =    4.368337181200937
	CIAB energy                =   -0.023039076419653
	ABCD energy                =    0.041942231908661
	Total two-electron energy  =   -1.323167064273516
	Total EOM CCSD correlation energy        =    0.252125006469350
	CCSD correlation + EOM excitation energy =    0.252125005955133
	Total EOM CCSD energy                    =  -75.746112369826733

	Energies re-computed from Mulliken density:
	-------------------------------------------
	One-electron energy        =    1.575292070742865
	IJKL energy                =   -6.796913452674954
	IJKA energy                =    1.271804385574845
	IJAB energy                =   -0.282000924550545
	IBJA energy                =    4.465039771888131
	CIAB energy                =   -0.023039076419653
	ABCD energy                =    0.041942231908661
	Total two-electron energy  =   -1.323167064273516
	Total EOM CCSD correlation energy        =    0.252125006469350
	CCSD correlation + EOM excitation energy =    0.252125005955133
	Total EOM CCSD energy                    =  -75.746112369826733

*** tstop() called on lawn-143-215-103-161.lawn.gatech.edu at Fri Apr 27 14:22:53 2012
Module time:
	user time   =       0.11 seconds =       0.00 minutes
	system time =       0.12 seconds =       0.00 minutes
	total time  =          1 seconds =       0.02 minutes
Total time:
	user time   =       0.63 seconds =       0.01 minutes
	system time =       0.66 seconds =       0.01 minutes
	total time  =          2 seconds =       0.03 minutes

*** tstart() called on lawn-143-215-103-161.lawn.gatech.edu
*** at Fri Apr 27 14:22:53 2012

 DERIV: Derivative code.
   by Justin Turney

  Cartesian Displacement SALCs
  By SALC:
  Number of SALCs: 3, nirreps: 1
  Project out translations: False
  Project out rotations: False
	irrep = 0, ncomponent = 2
		0: atom 0, direction y, coef 0.707107
		1: atom 2, direction y, coef -0.707107
	irrep = 0, ncomponent = 2
		0: atom 0, direction z, coef 0.707107
		1: atom 2, direction z, coef 0.707107
	irrep = 0, ncomponent = 1
		0: atom 1, direction z, coef 1.000000

  By Atomic Center:
  Number of atomic centers: 3
   Atomic Center 0:
	x component, size = 0
	y component, size = 1
		0: salc 0, irrep 0, coef 0.707107
	z component, size = 1
		0: salc 1, irrep 0, coef 0.707107
   Atomic Center 1:
	x component, size = 0
	y component, size = 0
	z component, size = 1
		0: salc 2, irrep 0, coef 1.000000
   Atomic Center 2:
	x component, size = 0
	y component, size = 1
		0: salc 0, irrep 0, coef -0.707107
	z component, size = 1
		0: salc 1, irrep 0, coef 0.707107

    Molecular point group: c2v

    Geometry (in Bohr), charge = 0, multiplicity = 1:

       Center              X                  Y                   Z       
    ------------   -----------------  -----------------  -----------------
           H          0.000000000000    -1.443627918148     1.134274838578
           O         -0.000000000000     0.000000000000    -0.142939253226
           H         -0.000000000000     1.443627918148     1.134274838578

	Presorting MO-basis TPDM.
	Sorting File: MO TPDM (AA|AA) nbuckets = 1
	Starting first half-transformation.
	Sorting half-transformed TPDM.
	First half integral transformation complete.


  -Nuclear Repulsion Energy 1st Derivatives:
     Atom            X                  Y                   Z
    ------   -----------------  -----------------  -----------------
       1        0.000000000000     1.732636842258    -1.426777654799
       2        0.000000000000     0.000000000000     2.853555309597
       3       -0.000000000000    -1.732636842258    -1.426777654799


  -One-electron contribution to gradient:
     Atom            X                  Y                   Z
    ------   -----------------  -----------------  -----------------
       1        0.000000000000    -2.365213539610     2.994321519879
       2        0.000000000000     0.000000000000    -5.988643039758
       3        0.000000000000     2.365213539610     2.994321519879


  -Lagrangian contribution to gradient:
     Atom            X                  Y                   Z
    ------   -----------------  -----------------  -----------------
       1        0.000000000000     0.139029535338    -0.217315393890
       2        0.000000000000     0.000000000000     0.434630787780
       3        0.000000000000    -0.139029535338    -0.217315393890


  -Two-electron contribution to gradient:
     Atom            X                  Y                   Z
    ------   -----------------  -----------------  -----------------
       1        0.000000000000     0.589252463087    -1.342040759334
       2        0.000000000000     0.000000000000     2.684081518668
       3        0.000000000000    -0.589252463087    -1.342040759334


  -Total gradient:
     Atom            X                  Y                   Z
    ------   -----------------  -----------------  -----------------
       1        0.000000000000     0.095705301073     0.008187711856
       2        0.000000000000     0.000000000000    -0.016375423713
       3       -0.000000000000    -0.095705301073     0.008187711856


*** tstop() called on lawn-143-215-103-161.lawn.gatech.edu at Fri Apr 27 14:22:53 2012
Module time:
	user time   =       0.06 seconds =       0.00 minutes
	system time =       0.01 seconds =       0.00 minutes
	total time  =          0 seconds =       0.00 minutes
Total time:
	user time   =       0.69 seconds =       0.01 minutes
	system time =       0.67 seconds =       0.01 minutes
	total time  =          2 seconds =       0.03 minutes

-------------------------------------------------------------

  Using finite-differences of energies to determine gradients (fd_geoms_1_0).
	Generating geometries for use with 3-point formula.
	Displacement size will be 5.00e-03.
	Number of atoms is 3.
	Number of symmetric SALC's is 2.
	Number of displacements (including reference) is 5.

-------------------------------------------------------------

  //>>>>>>>>>>>>>>>>>>>>>>>>>>>>>>>>>>>//
  //    Loading displacement 1 of 5    //
  //<<<<<<<<<<<<<<<<<<<<<<<<<<<<<<<<<<<//

*** tstart() called on lawn-143-215-103-161.lawn.gatech.edu
*** at Fri Apr 27 14:22:53 2012


         ---------------------------------------------------------
                                   SCF
            by Justin Turney, Rob Parrish, and Andy Simmonett
                              RHF Reference
                        1 Threads,    250 MiB Core
         ---------------------------------------------------------

  ==> Geometry <==

    Molecular point group: c2v

    Geometry (in Bohr), charge = 0, multiplicity = 1:

       Center              X                  Y                   Z       
    ------------   -----------------  -----------------  -----------------
           H          0.000000000000    -1.447149699877     1.134274838578
           O          0.000000000000     0.000000000000    -0.142939253226
           H         -0.000000000000     1.447149699877     1.134274838578

  Running in c2v symmetry.

  Nuclear repulsion =    8.634974470989285

  Charge       = 0
  Multiplicity = 1
  Electrons    = 10
  Nalpha       = 5
  Nbeta        = 5

  ==> Algorithm <==

  SCF Algorithm Type is PK.
  DIIS enabled.
  MOM disabled.
  Fractional occupation disabled.
  Guess Type is CORE.
  Energy threshold   = 1.00e-08
  Density threshold  = 1.00e-08
  Integral threshold = 0.00e+00

  ==> Primary Basis <==

  Basis Set: DZ
    Number of shells: 10
    Number of basis function: 14
    Number of Cartesian functions: 14
    Spherical Harmonics?: true
    Max angular momentum: 1

  ==> Pre-Iterations <==

  Minimum eigenvalue in the overlap matrix is 6.0948076218E-02.
  Using Symmetric Orthogonalization.
  SCF Guess: Core (One-Electron) Hamiltonian.

  Initial RHF energy:   -58.14035849503384

   -------------------------------------------------------
    Irrep   Nso     Nmo     Nalpha   Nbeta   Ndocc  Nsocc
   -------------------------------------------------------
     A1         8       8       3       3       3       0
     A2         0       0       0       0       0       0
     B1         2       2       1       1       1       0
     B2         4       4       1       1       1       0
   -------------------------------------------------------
    Total      14      14       5       5       5       0
   -------------------------------------------------------

  ==> Integral Setup <==

 MINTS: Wrapper to libmints.
   by Justin Turney

   Calculation information:
      Number of atoms:                   3
      Number of AO shells:              10
      Number of SO shells:               8
      Number of primitives:             22
      Number of atomic orbitals:        14
      Number of basis functions:        14

      Number of irreps:                  4
      Number of functions per irrep: [   8    0    2    4 ]

      Overlap, kinetic, potential, dipole, and quadrupole integrals
        stored in file 35.

      Computing two-electron integrals...done
      Computed 1709 non-zero two-electron integrals.
        Stored in file 33.

  ==> Iterations <==

                        Total Energy        Delta E     Density RMS

   @RHF iter   1:   -70.46424953376115   -1.23239e+01   0.00000e+00 
   @RHF iter   2:   -72.17962147173481   -1.71537e+00   5.81362e-01 DIIS
   @RHF iter   3:   -75.55160676336405   -3.37199e+00   4.97905e-01 DIIS
   @RHF iter   4:   -75.98099948650363   -4.29393e-01   4.48236e-02 DIIS
   @RHF iter   5:   -75.99759480891555   -1.65953e-02   1.19512e-02 DIIS
   @RHF iter   6:   -75.99804631121012   -4.51502e-04   2.58726e-03 DIIS
   @RHF iter   7:   -75.99806306312098   -1.67519e-05   5.62014e-04 DIIS
   @RHF iter   8:   -75.99806344304230   -3.79921e-07   7.73751e-05 DIIS
   @RHF iter   9:   -75.99806345698178   -1.39395e-08   1.49426e-05 DIIS
   @RHF iter  10:   -75.99806345751364   -5.31855e-10   3.12433e-06 DIIS
   @RHF iter  11:   -75.99806345756588   -5.22391e-11   9.05592e-07 DIIS
   @RHF iter  12:   -75.99806345756659   -7.10543e-13   1.47740e-07 DIIS
   @RHF iter  13:   -75.99806345756659    0.00000e+00   1.50530e-08 DIIS

  ==> Post-Iterations <==

	Orbital Energies (a.u.)
	-----------------------

	Doubly Occupied:                                                      

	   1A1   -20.575411     2A1    -1.337119     1B2    -0.670501  
	   3A1    -0.570750     1B1    -0.506224  

	Virtual:                                                              

	   4A1     0.198515     2B2     0.285662     2B1     0.863696  
	   5A1     0.905849     3B2     0.921659     4B2     1.158005  
	   6A1     1.177857     7A1     1.682559     8A1    43.309996  

	Final Occupation by Irrep:
	         A1    A2    B1    B2 
	DOCC [     3,    0,    1,    1 ]

  Energy converged.

  @RHF Final Energy:   -75.99806345756659

   => Energetics <=

    Nuclear Repulsion Energy =          8.6349744709892846
    One-Electron Energy =            -121.9460677666767907
    Two-Electron Energy =              37.3130298381209116
    DFT Functional Energy =             0.0000000000000000
    Empirical Dispersion Energy =       0.0000000000000000
    Total Energy =                    -75.9980634575665874

  ==> Properties <==

  Nuclear Dipole Moment: (a.u.)
     X:     0.0000      Y:     0.0000      Z:     1.1250

  Electronic Dipole Moment: (a.u.)
     X:     0.0000      Y:     0.0000      Z:    -0.0142

  Dipole Moment: (a.u.)
     X:     0.0000      Y:     0.0000      Z:     1.1109     Total:     1.1109

  Dipole Moment: (Debye)
     X:     0.0000      Y:     0.0000      Z:     2.8236     Total:     2.8236


  Saving occupied orbitals to File 180.

*** tstop() called on lawn-143-215-103-161.lawn.gatech.edu at Fri Apr 27 14:22:53 2012
Module time:
	user time   =       0.05 seconds =       0.00 minutes
	system time =       0.01 seconds =       0.00 minutes
	total time  =          0 seconds =       0.00 minutes
Total time:
	user time   =       0.74 seconds =       0.01 minutes
	system time =       0.68 seconds =       0.01 minutes
	total time  =          2 seconds =       0.03 minutes

*** tstart() called on lawn-143-215-103-161.lawn.gatech.edu
*** at Fri Apr 27 14:22:53 2012


	**************************************************
	* TRANSQT2: Program to transform integrals from  *
	*           the SO basis to the MO basis.        *
	*                                                *
	*            Daniel, David, & Justin             *
	**************************************************


	Input parameters:
	-----------------
	Wave function   =	CCSD
	Backtransform   =	No
	Print Level     =	1
	Print TEIs      =	No
	Reference wfn   =	RHF
	Derivative      =	None
	Delete TEI File =	Yes
	Memory (Mbytes) =	250.0
	Cache Level     =	2
	Cache Type      =	LRU
	Chkpt Parameters:
	--------------------
	Number of irreps     = 4
	Number of SOs        = 14
	Number of MOs        = 14
	Number of active MOs = 14

	Label	# SOs	# FZDC	# DOCC	# SOCC	# VIRT	# FZVR
	-----	-----	------	------	------	------	------
	 A1	   8	    0	    3	    0	    5	    0
	 A2	   0	    0	    0	    0	    0	    0
	 B1	   2	    0	    1	    0	    1	    0
	 B2	   4	    0	    1	    0	    3	    0

	Nuclear Rep. energy (chkpt) =      8.63497447098928
	SCF energy          (chkpt) =    -75.99806345756659

	Presorting SO-basis two-electron integrals.
	Sorting File: SO Ints (pq,rs) nbuckets = 1
	Frozen-core energy =    0.000000000000000
	Starting first half-transformation.
	Sorting half-transformed integrals.
	Starting second half-transformation.
	Two-electron integral transformation complete.

*** tstop() called on lawn-143-215-103-161.lawn.gatech.edu at Fri Apr 27 14:22:53 2012
Module time:
	user time   =       0.00 seconds =       0.00 minutes
	system time =       0.01 seconds =       0.00 minutes
	total time  =          0 seconds =       0.00 minutes
Total time:
	user time   =       0.74 seconds =       0.01 minutes
	system time =       0.69 seconds =       0.01 minutes
	total time  =          2 seconds =       0.03 minutes

*** tstart() called on lawn-143-215-103-161.lawn.gatech.edu
*** at Fri Apr 27 14:22:53 2012


			**************************
			*                        *
			*         CCSORT         *
			*                        *
			**************************


	Input parameters:
	-----------------
	Wave function   =	CCSD
	Reference wfn   =	RHF
	Derivative      =	None
	Memory (Mbytes) =	250.0
	AO Basis        =	NONE
	Make (ab|cd)    =	True
	Make unpacked (ab|cd) =	False
	Cache Level     =	2
	Cache Type      =	LRU
	Local CC        =     No


	Chkpt Parameters:
	--------------------
	Number of irreps     = 4
	Number of MOs        = 14
	Number of active MOs = 14

	Label	# MOs	# FZDC	# DOCC	# SOCC	# VIRT	# FZVR
	-----	-----	------	------	------	------	------
	 A1	   8	    0	    3	    0	    5	    0
	 A2	   0	    0	    0	    0	    0	    0
	 B1	   2	    0	    1	    0	    1	    0
	 B2	   4	    0	    1	    0	    3	    0

	Nuclear Rep. energy (chkpt) =      8.63497447098928
	SCF energy          (chkpt) =    -75.99806345756659

	Size of irrep 0 of <ab|cd> integrals:      0.001 (MW) /      0.010 (MB)
	Size of irrep 1 of <ab|cd> integrals:      0.000 (MW) /      0.000 (MB)
	Size of irrep 2 of <ab|cd> integrals:      0.000 (MW) /      0.001 (MB)
	Size of irrep 3 of <ab|cd> integrals:      0.001 (MW) /      0.007 (MB)
	Total:                                     0.002 (MW) /      0.018 (MB)

	Size of irrep 0 of <ia|bc> integrals:      0.001 (MW) /      0.005 (MB)
	Size of irrep 1 of <ia|bc> integrals:      0.000 (MW) /      0.000 (MB)
	Size of irrep 2 of <ia|bc> integrals:      0.000 (MW) /      0.001 (MB)
	Size of irrep 3 of <ia|bc> integrals:      0.000 (MW) /      0.003 (MB)
	Total:                                     0.001 (MW) /      0.010 (MB)

	Size of irrep 0 of tijab amplitudes:       0.000 (MW) /      0.003 (MB)
	Size of irrep 1 of tijab amplitudes:       0.000 (MW) /      0.000 (MB)
	Size of irrep 2 of tijab amplitudes:       0.000 (MW) /      0.000 (MB)
	Size of irrep 3 of tijab amplitudes:       0.000 (MW) /      0.001 (MB)
	Total:                                     0.001 (MW) /      0.005 (MB)


	Sorting File: A <ij|kl> nbuckets = 1
	Sorting File: B(+) <ab|cd> nbuckets = 1
	Sorting File: C <ia|jb> nbuckets = 1
	Sorting File: D <ij|ab> nbuckets = 1
	Sorting File: E <ai|jk> nbuckets = 1
	Sorting File: F <ia|bc> nbuckets = 1
	One-electron energy          =   -121.94606775917620
	Two-electron (AA) energy     =     14.21785616230452
	Two-electron (BB) energy     =     14.21785616230452
	Two-electron (AB) energy     =     23.09517366831584
	Two-electron energy          =     37.31302983062036
	Frozen-core energy (transqt) =      0.00000000000000
	Reference energy             =    -75.99806345756656

*** tstop() called on lawn-143-215-103-161.lawn.gatech.edu at Fri Apr 27 14:22:53 2012
Module time:
	user time   =       0.02 seconds =       0.00 minutes
	system time =       0.03 seconds =       0.00 minutes
	total time  =          0 seconds =       0.00 minutes
Total time:
	user time   =       0.76 seconds =       0.01 minutes
	system time =       0.72 seconds =       0.01 minutes
	total time  =          2 seconds =       0.03 minutes

*** tstart() called on lawn-143-215-103-161.lawn.gatech.edu
*** at Fri Apr 27 14:22:53 2012

			**************************
			*                        *
			*        CCENERGY        *
			*                        *
			**************************

	Nuclear Rep. energy (chkpt)   =    8.634974470989285
	SCF energy          (chkpt)   =  -75.998063457566587
	Reference energy    (file100) =  -75.998063457566559

	Input parameters:
	-----------------
	Wave function   =     CCSD
	Reference wfn   =     RHF
	Memory (Mbytes) =     250.0
	Maxiter         =     50
	Convergence     =     1.0e-07
	Restart         =     No
	DIIS            =     Yes
	AO Basis        =     NONE
	ABCD            =     NEW
	Cache Level     =     2
	Cache Type      =     LOW
	Print Level     =     1
	Num. of threads =     1
	# Amps to Print =     10
	Print MP2 Amps? =     No
	Analyze T2 Amps =     No
	Print Pair Ener =     No
	Local CC        =     No
	SCS-MP2         =     False
	SCSN-MP2        =     False
	SCS-CCSD        =     False

	            Solving CC Amplitude Equations
	            ------------------------------
  Iter             Energy              RMS        T1Diag      D1Diag    New D1Diag
  ----     ---------------------    ---------   ----------  ----------  ----------
     0        -0.145175214627183    4.031e-08    0.000000    0.000000    0.000000
     1        -0.146638649224759    3.338e-02    0.006279    0.012467    0.012467
     2        -0.151088777881979    1.287e-02    0.007090    0.013733    0.013733
     3        -0.151987497057719    3.911e-03    0.007774    0.014601    0.014601
     4        -0.152037234216622    8.373e-04    0.007783    0.014452    0.014452
     5        -0.152058283884742    2.213e-04    0.007804    0.014429    0.014429
     6        -0.152055430335052    6.218e-05    0.007813    0.014432    0.014432
     7        -0.152054520961025    1.506e-05    0.007815    0.014432    0.014432
     8        -0.152054613919157    3.931e-06    0.007815    0.014431    0.014431
     9        -0.152054489456950    1.026e-06    0.007815    0.014431    0.014431
    10        -0.152054513243223    1.733e-07    0.007815    0.014431    0.014431
    11        -0.152054509509252    4.089e-08    0.007815    0.014431    0.014431

	Iterations converged.


	Largest TIA Amplitudes:
	          3   5        -0.0144309463
	          2   0         0.0121341933
	          4   6         0.0091562924
	          4   7         0.0080767580
	          1   1         0.0061140263
	          2   3         0.0056618424
	          4   8        -0.0046895316
	          1   0         0.0027576551
	          2   1        -0.0019178615
	          1   3         0.0017340867

	Largest TIjAb Amplitudes:
	  3   3   5   5        -0.0570699566
	  4   4   6   6        -0.0554720952
	  2   2   1   1        -0.0465051584
	  4   4   6   8        -0.0356667345
	  4   4   8   6        -0.0356667345
	  2   3   1   5        -0.0351816312
	  3   2   5   1        -0.0351816312
	  4   4   8   8        -0.0339615035
	  2   4   0   6        -0.0301637509
	  4   2   6   0        -0.0301637509

	SCF energy       (chkpt)              =  -75.998063457566587
	Reference energy (file100)            =  -75.998063457566559

	Opposite-spin MP2 correlation energy  =   -0.113843616285982
	Same-spin MP2 correlation energy      =   -0.031331598341201
	MP2 correlation energy                =   -0.145175214627183
      * MP2 total energy                      =  -76.143238672193746

	Opposite-spin CCSD correlation energy =   -0.127921692871427
	Same-spin CCSD correlation energy     =   -0.024132816636257
	CCSD correlation energy               =   -0.152054509509252
      * CCSD total energy                     =  -76.150117967075815


*** tstop() called on lawn-143-215-103-161.lawn.gatech.edu at Fri Apr 27 14:22:55 2012
Module time:
	user time   =       0.23 seconds =       0.00 minutes
	system time =       0.28 seconds =       0.00 minutes
	total time  =          2 seconds =       0.03 minutes
Total time:
	user time   =       1.00 seconds =       0.02 minutes
	system time =       1.00 seconds =       0.02 minutes
	total time  =          4 seconds =       0.07 minutes

*** tstart() called on lawn-143-215-103-161.lawn.gatech.edu
*** at Fri Apr 27 14:22:55 2012


			**************************
			*                        *
			*         CCHBAR         *
			*                        *
			**************************


*** tstop() called on lawn-143-215-103-161.lawn.gatech.edu at Fri Apr 27 14:22:55 2012
Module time:
	user time   =       0.02 seconds =       0.00 minutes
	system time =       0.03 seconds =       0.00 minutes
	total time  =          0 seconds =       0.00 minutes
Total time:
	user time   =       1.02 seconds =       0.02 minutes
	system time =       1.03 seconds =       0.02 minutes
	total time  =          4 seconds =       0.07 minutes

*** tstart() called on lawn-143-215-103-161.lawn.gatech.edu
*** at Fri Apr 27 14:22:55 2012


	**********************************************************
	*  CCEOM: An Equation of Motion Coupled Cluster Program  *
	**********************************************************

	Nuclear Rep. energy (chkpt)   =    8.634974470989285
	SCF energy          (chkpt)   =  -75.998063457566587
	Reference energy    (file100) =  -75.998063457566559
	CCSD energy         (file100) =   -0.152054509509252

	Input parameters:
	-----------------
	Reference wfn   =     RHF
	Reference EOM wfn=     RHF
	Memory (Mbytes) =  250.0
	ABCD            =     NEW
	Cache Level     =    2
	Cache Type      =     LRU
	Num. of threads =     1
	Local CC        =     No


	CCEOM parameters:
	-----------------
	States sought per irrep     = A1 1, A2 0, B1 0, B2 0,
	Max. number of iterations   =    80
	Vectors stored per root     =    12
	Print HbarSS iterations?    =     0
	Excitation range for HBarSS =     2
	Eigenvalue tolerance        = 1.0e-08
	Eigenvalue toleranceSS      = 1.0e-06
	Residual vector tolerance   = 1.0e-06
	Residual vector toleranceSS = 1.0e-06
	Complex tolerance           = 1.0e-12
	Root for properties         =     1
	Sym of state for properties =     A1
	Guess vectors taken from    = SINGLES
	Restart EOM CC3             = NO
	Collapse with last vector   = YES


Symmetry of ground state: A1
Symmetry of excited state: A1
Symmetry of right eigenvector: A1
Seeking states with multiplicity of 1
Obtaining initial guess from singles-singles block of Hbar...Done.

Iter=1    L=1     Root    EOM Energy     Delta E   Res. Norm    Conv?
                     1   0.4923801414   4.92e-01    3.94e-01      N
Iter=2    L=2     Root    EOM Energy     Delta E   Res. Norm    Conv?
                     1   0.4073958515  -8.50e-02    8.42e-02      N
Iter=3    L=3     Root    EOM Energy     Delta E   Res. Norm    Conv?
                     1   0.4036374568  -3.76e-03    3.17e-02      N
Iter=4    L=4     Root    EOM Energy     Delta E   Res. Norm    Conv?
                     1   0.4033698862  -2.68e-04    8.87e-03      N
Iter=5    L=5     Root    EOM Energy     Delta E   Res. Norm    Conv?
                     1   0.4033280598  -4.18e-05    2.54e-03      N
Iter=6    L=6     Root    EOM Energy     Delta E   Res. Norm    Conv?
                     1   0.4033370039   8.94e-06    1.10e-03      N
Iter=7    L=7     Root    EOM Energy     Delta E   Res. Norm    Conv?
                     1   0.4033356628  -1.34e-06    3.19e-04      N
Iter=8    L=8     Root    EOM Energy     Delta E   Res. Norm    Conv?
                     1   0.4033347949  -8.68e-07    9.06e-05      N
Iter=9    L=9     Root    EOM Energy     Delta E   Res. Norm    Conv?
                     1   0.4033345734  -2.22e-07    3.16e-05      N
Iter=10   L=10    Root    EOM Energy     Delta E   Res. Norm    Conv?
                     1   0.4033345968   2.34e-08    8.66e-06      N
Iter=11   L=11    Root    EOM Energy     Delta E   Res. Norm    Conv?
                     1   0.4033345768  -2.00e-08    2.81e-06      N
Iter=12   L=12    Root    EOM Energy     Delta E   Res. Norm    Conv?
                     1   0.4033345848   8.04e-09    1.04e-06      N
Iter=13   L=2     Root    EOM Energy     Delta E   Res. Norm    Conv?
                     1   0.4033345848   6.51e-14    1.04e-06      N
Iter=14   L=3     Root    EOM Energy     Delta E   Res. Norm    Conv?
                     1   0.4033345858   1.01e-09    2.15e-07      Y
Collapsing to only 1 vector(s).

Procedure converged for 1 root(s).
Energy written to chkpt:Etot  -75.7467833812
States per irrep written to chkpt.
EOM CCSD R0 for root 0 =   0.01719910501

Final Energetic Summary for Converged Roots of Irrep A1
                     Excitation Energy              Total Energy
                (eV)     (cm^-1)     (au)             (au)
EOM State 1     10.975    88521.7   0.4033345858   -75.746783381236

Largest components of excited wave function #1:
 RIA (libdpd indices) : (cscf notation)
         2 >   0      :       3a1 >    4a1 :   -0.6767163723
         0 >   0      :       1b2 >    2b2 :    0.0915479947
         0 >   0      :       1b1 >    2b1 :   -0.0400039655
         1 >   0      :       2a1 >    4a1 :    0.0378564485
         2 >   2      :       3a1 >    6a1 :   -0.0349971531
 RIjAb (libdpd indices)     : (cscf notation)
        2   2 >   0   0     :    3a1    3a1 >    4a1    4a1 :    0.1088456105
        2   0 >   0   0     :    3a1    1b2 >    4a1    2b2 :    0.0666234735
        0   2 >   0   0     :    1b2    3a1 >    2b2    4a1 :    0.0666234735
        2   2 >   0   0     :    3a1    3a1 >    2b2    2b2 :    0.0569221680
        2   2 >   0   1     :    3a1    3a1 >    4a1    5a1 :   -0.0549043805

	Putting into environment energy for root of R irrep 1 and root 1.
	Putting into environment CURRENT ENERGY:              -75.7467833812

	Total # of sigma evaluations: 13

*** tstop() called on lawn-143-215-103-161.lawn.gatech.edu at Fri Apr 27 14:22:55 2012
Module time:
	user time   =       0.10 seconds =       0.00 minutes
	system time =       0.07 seconds =       0.00 minutes
	total time  =          0 seconds =       0.00 minutes
Total time:
	user time   =       1.12 seconds =       0.02 minutes
	system time =       1.10 seconds =       0.02 minutes
	total time  =          4 seconds =       0.07 minutes

  //>>>>>>>>>>>>>>>>>>>>>>>>>>>>>>>>>>>//
  //    Loading displacement 2 of 5    //
  //<<<<<<<<<<<<<<<<<<<<<<<<<<<<<<<<<<<//

*** tstart() called on lawn-143-215-103-161.lawn.gatech.edu
*** at Fri Apr 27 14:22:55 2012


         ---------------------------------------------------------
                                   SCF
            by Justin Turney, Rob Parrish, and Andy Simmonett
                              RHF Reference
                        1 Threads,    250 MiB Core
         ---------------------------------------------------------

  ==> Geometry <==

    Molecular point group: c2v

    Geometry (in Bohr), charge = 0, multiplicity = 1:

       Center              X                  Y                   Z       
    ------------   -----------------  -----------------  -----------------
           H          0.000000000000    -1.440106136420     1.134274838578
           O          0.000000000000     0.000000000000    -0.142939253226
           H         -0.000000000000     1.440106136420     1.134274838578

  Running in c2v symmetry.

  Nuclear repulsion =    8.659382348734434

  Charge       = 0
  Multiplicity = 1
  Electrons    = 10
  Nalpha       = 5
  Nbeta        = 5

  ==> Algorithm <==

  SCF Algorithm Type is PK.
  DIIS enabled.
  MOM disabled.
  Fractional occupation disabled.
  Guess Type is CORE.
  Energy threshold   = 1.00e-08
  Density threshold  = 1.00e-08
  Integral threshold = 0.00e+00

  ==> Primary Basis <==

  Basis Set: DZ
    Number of shells: 10
    Number of basis function: 14
    Number of Cartesian functions: 14
    Spherical Harmonics?: true
    Max angular momentum: 1

  ==> Pre-Iterations <==

  Minimum eigenvalue in the overlap matrix is 6.0565460892E-02.
  Using Symmetric Orthogonalization.
  SCF Guess: Core (One-Electron) Hamiltonian.

  Initial RHF energy:   -58.13037171642488

   -------------------------------------------------------
    Irrep   Nso     Nmo     Nalpha   Nbeta   Ndocc  Nsocc
   -------------------------------------------------------
     A1         8       8       3       3       3       0
     A2         0       0       0       0       0       0
     B1         2       2       1       1       1       0
     B2         4       4       1       1       1       0
   -------------------------------------------------------
    Total      14      14       5       5       5       0
   -------------------------------------------------------

  ==> Integral Setup <==

 MINTS: Wrapper to libmints.
   by Justin Turney

   Calculation information:
      Number of atoms:                   3
      Number of AO shells:              10
      Number of SO shells:               8
      Number of primitives:             22
      Number of atomic orbitals:        14
      Number of basis functions:        14

      Number of irreps:                  4
      Number of functions per irrep: [   8    0    2    4 ]

      Overlap, kinetic, potential, dipole, and quadrupole integrals
        stored in file 35.

      Computing two-electron integrals...done
      Computed 1709 non-zero two-electron integrals.
        Stored in file 33.

  ==> Iterations <==

                        Total Energy        Delta E     Density RMS

   @RHF iter   1:   -70.46596246049636   -1.23356e+01   0.00000e+00 
   @RHF iter   2:   -72.17892638508997   -1.71296e+00   5.82914e-01 DIIS
   @RHF iter   3:   -75.55374766767925   -3.37482e+00   4.99648e-01 DIIS
   @RHF iter   4:   -75.98142533760071   -4.27678e-01   4.47623e-02 DIIS
   @RHF iter   5:   -75.99793969248465   -1.65144e-02   1.19446e-02 DIIS
   @RHF iter   6:   -75.99838634321563   -4.46651e-04   2.58151e-03 DIIS
   @RHF iter   7:   -75.99840285515350   -1.65119e-05   5.58901e-04 DIIS
   @RHF iter   8:   -75.99840323142280   -3.76269e-07   7.69499e-05 DIIS
   @RHF iter   9:   -75.99840324520603   -1.37832e-08   1.48923e-05 DIIS
   @RHF iter  10:   -75.99840324572892   -5.22888e-10   3.09507e-06 DIIS
   @RHF iter  11:   -75.99840324577958   -5.06617e-11   8.91816e-07 DIIS
   @RHF iter  12:   -75.99840324578034   -7.53175e-13   1.45421e-07 DIIS
   @RHF iter  13:   -75.99840324578031    2.84217e-14   1.48576e-08 DIIS

  ==> Post-Iterations <==

	Orbital Energies (a.u.)
	-----------------------

	Doubly Occupied:                                                      

	   1A1   -20.575087     2A1    -1.338711     1B2    -0.671367  
	   3A1    -0.571712     1B1    -0.506460  

	Virtual:                                                              

	   4A1     0.199229     2B2     0.286618     2B1     0.863617  
	   5A1     0.905621     3B2     0.919795     4B2     1.159997  
	   6A1     1.181784     7A1     1.684169     8A1    43.310947  

	Final Occupation by Irrep:
	         A1    A2    B1    B2 
	DOCC [     3,    0,    1,    1 ]

  Energy converged.

  @RHF Final Energy:   -75.99840324578031

   => Energetics <=

    Nuclear Repulsion Energy =          8.6593823487344341
    One-Electron Energy =            -121.9888987708671237
    Two-Electron Energy =              37.3311131763523676
    DFT Functional Energy =             0.0000000000000000
    Empirical Dispersion Energy =       0.0000000000000000
    Total Energy =                    -75.9984032457803096

  ==> Properties <==

  Nuclear Dipole Moment: (a.u.)
     X:     0.0000      Y:     0.0000      Z:     1.1250

  Electronic Dipole Moment: (a.u.)
     X:     0.0000      Y:     0.0000      Z:    -0.0127

  Dipole Moment: (a.u.)
     X:     0.0000      Y:     0.0000      Z:     1.1123     Total:     1.1123

  Dipole Moment: (Debye)
     X:     0.0000      Y:     0.0000      Z:     2.8272     Total:     2.8272


  Saving occupied orbitals to File 180.

*** tstop() called on lawn-143-215-103-161.lawn.gatech.edu at Fri Apr 27 14:22:55 2012
Module time:
	user time   =       0.04 seconds =       0.00 minutes
	system time =       0.01 seconds =       0.00 minutes
	total time  =          0 seconds =       0.00 minutes
Total time:
	user time   =       1.16 seconds =       0.02 minutes
	system time =       1.11 seconds =       0.02 minutes
	total time  =          4 seconds =       0.07 minutes

*** tstart() called on lawn-143-215-103-161.lawn.gatech.edu
*** at Fri Apr 27 14:22:55 2012


	**************************************************
	* TRANSQT2: Program to transform integrals from  *
	*           the SO basis to the MO basis.        *
	*                                                *
	*            Daniel, David, & Justin             *
	**************************************************


	Input parameters:
	-----------------
	Wave function   =	CCSD
	Backtransform   =	No
	Print Level     =	1
	Print TEIs      =	No
	Reference wfn   =	RHF
	Derivative      =	None
	Delete TEI File =	Yes
	Memory (Mbytes) =	250.0
	Cache Level     =	2
	Cache Type      =	LRU
	Chkpt Parameters:
	--------------------
	Number of irreps     = 4
	Number of SOs        = 14
	Number of MOs        = 14
	Number of active MOs = 14

	Label	# SOs	# FZDC	# DOCC	# SOCC	# VIRT	# FZVR
	-----	-----	------	------	------	------	------
	 A1	   8	    0	    3	    0	    5	    0
	 A2	   0	    0	    0	    0	    0	    0
	 B1	   2	    0	    1	    0	    1	    0
	 B2	   4	    0	    1	    0	    3	    0

	Nuclear Rep. energy (chkpt) =      8.65938234873443
	SCF energy          (chkpt) =    -75.99840324578031

	Presorting SO-basis two-electron integrals.
	Sorting File: SO Ints (pq,rs) nbuckets = 1
	Frozen-core energy =    0.000000000000000
	Starting first half-transformation.
	Sorting half-transformed integrals.
	Starting second half-transformation.
	Two-electron integral transformation complete.

*** tstop() called on lawn-143-215-103-161.lawn.gatech.edu at Fri Apr 27 14:22:55 2012
Module time:
	user time   =       0.01 seconds =       0.00 minutes
	system time =       0.00 seconds =       0.00 minutes
	total time  =          0 seconds =       0.00 minutes
Total time:
	user time   =       1.17 seconds =       0.02 minutes
	system time =       1.11 seconds =       0.02 minutes
	total time  =          4 seconds =       0.07 minutes

*** tstart() called on lawn-143-215-103-161.lawn.gatech.edu
*** at Fri Apr 27 14:22:55 2012


			**************************
			*                        *
			*         CCSORT         *
			*                        *
			**************************


	Input parameters:
	-----------------
	Wave function   =	CCSD
	Reference wfn   =	RHF
	Derivative      =	None
	Memory (Mbytes) =	250.0
	AO Basis        =	NONE
	Make (ab|cd)    =	True
	Make unpacked (ab|cd) =	False
	Cache Level     =	2
	Cache Type      =	LRU
	Local CC        =     No


	Chkpt Parameters:
	--------------------
	Number of irreps     = 4
	Number of MOs        = 14
	Number of active MOs = 14

	Label	# MOs	# FZDC	# DOCC	# SOCC	# VIRT	# FZVR
	-----	-----	------	------	------	------	------
	 A1	   8	    0	    3	    0	    5	    0
	 A2	   0	    0	    0	    0	    0	    0
	 B1	   2	    0	    1	    0	    1	    0
	 B2	   4	    0	    1	    0	    3	    0

	Nuclear Rep. energy (chkpt) =      8.65938234873443
	SCF energy          (chkpt) =    -75.99840324578031

	Size of irrep 0 of <ab|cd> integrals:      0.001 (MW) /      0.010 (MB)
	Size of irrep 1 of <ab|cd> integrals:      0.000 (MW) /      0.000 (MB)
	Size of irrep 2 of <ab|cd> integrals:      0.000 (MW) /      0.001 (MB)
	Size of irrep 3 of <ab|cd> integrals:      0.001 (MW) /      0.007 (MB)
	Total:                                     0.002 (MW) /      0.018 (MB)

	Size of irrep 0 of <ia|bc> integrals:      0.001 (MW) /      0.005 (MB)
	Size of irrep 1 of <ia|bc> integrals:      0.000 (MW) /      0.000 (MB)
	Size of irrep 2 of <ia|bc> integrals:      0.000 (MW) /      0.001 (MB)
	Size of irrep 3 of <ia|bc> integrals:      0.000 (MW) /      0.003 (MB)
	Total:                                     0.001 (MW) /      0.010 (MB)

	Size of irrep 0 of tijab amplitudes:       0.000 (MW) /      0.003 (MB)
	Size of irrep 1 of tijab amplitudes:       0.000 (MW) /      0.000 (MB)
	Size of irrep 2 of tijab amplitudes:       0.000 (MW) /      0.000 (MB)
	Size of irrep 3 of tijab amplitudes:       0.000 (MW) /      0.001 (MB)
	Total:                                     0.001 (MW) /      0.005 (MB)


	Sorting File: A <ij|kl> nbuckets = 1
	Sorting File: B(+) <ab|cd> nbuckets = 1
	Sorting File: C <ia|jb> nbuckets = 1
	Sorting File: D <ij|ab> nbuckets = 1
	Sorting File: E <ai|jk> nbuckets = 1
	Sorting File: F <ia|bc> nbuckets = 1
	One-electron energy          =   -121.98889876372905
	Two-electron (AA) energy     =     14.22554620222024
	Two-electron (BB) energy     =     14.22554620222024
	Two-electron (AB) energy     =     23.10556696699403
	Two-electron energy          =     37.33111316921428
	Frozen-core energy (transqt) =      0.00000000000000
	Reference energy             =    -75.99840324578034

*** tstop() called on lawn-143-215-103-161.lawn.gatech.edu at Fri Apr 27 14:22:55 2012
Module time:
	user time   =       0.02 seconds =       0.00 minutes
	system time =       0.03 seconds =       0.00 minutes
	total time  =          0 seconds =       0.00 minutes
Total time:
	user time   =       1.19 seconds =       0.02 minutes
	system time =       1.14 seconds =       0.02 minutes
	total time  =          4 seconds =       0.07 minutes

*** tstart() called on lawn-143-215-103-161.lawn.gatech.edu
*** at Fri Apr 27 14:22:55 2012

			**************************
			*                        *
			*        CCENERGY        *
			*                        *
			**************************

	Nuclear Rep. energy (chkpt)   =    8.659382348734434
	SCF energy          (chkpt)   =  -75.998403245780310
	Reference energy    (file100) =  -75.998403245780338

	Input parameters:
	-----------------
	Wave function   =     CCSD
	Reference wfn   =     RHF
	Memory (Mbytes) =     250.0
	Maxiter         =     50
	Convergence     =     1.0e-07
	Restart         =     No
	DIIS            =     Yes
	AO Basis        =     NONE
	ABCD            =     NEW
	Cache Level     =     2
	Cache Type      =     LOW
	Print Level     =     1
	Num. of threads =     1
	# Amps to Print =     10
	Print MP2 Amps? =     No
	Analyze T2 Amps =     No
	Print Pair Ener =     No
	Local CC        =     No
	SCS-MP2         =     False
	SCSN-MP2        =     False
	SCS-CCSD        =     False

	            Solving CC Amplitude Equations
	            ------------------------------
  Iter             Energy              RMS        T1Diag      D1Diag    New D1Diag
  ----     ---------------------    ---------   ----------  ----------  ----------
     0        -0.144906548500650    4.089e-08    0.000000    0.000000    0.000000
     1        -0.146402352376408    3.325e-02    0.006259    0.012449    0.012449
     2        -0.150823691851084    1.278e-02    0.007059    0.013713    0.013713
     3        -0.151715029423425    3.877e-03    0.007735    0.014578    0.014578
     4        -0.151764202063578    8.270e-04    0.007743    0.014433    0.014433
     5        -0.151784898981847    2.168e-04    0.007762    0.014410    0.014410
     6        -0.151782200310026    6.071e-05    0.007771    0.014413    0.014413
     7        -0.151781305091469    1.476e-05    0.007773    0.014413    0.014413
     8        -0.151781399098839    3.855e-06    0.007773    0.014412    0.014412
     9        -0.151781278216224    1.001e-06    0.007773    0.014412    0.014412
    10        -0.151781301162311    1.683e-07    0.007773    0.014412    0.014412
    11        -0.151781297546854    3.973e-08    0.007773    0.014412    0.014412

	Iterations converged.


	Largest TIA Amplitudes:
	          3   5        -0.0144120861
	          2   0         0.0119834835
	          4   6         0.0091715543
	          4   7         0.0079735895
	          1   1         0.0060910842
	          2   3         0.0056010490
	          4   8        -0.0046687370
	          1   0         0.0027659632
	          2   1        -0.0019820111
	          1   3         0.0017227961

	Largest TIjAb Amplitudes:
	  3   3   5   5        -0.0570754818
	  4   4   6   6        -0.0551640447
	  2   2   1   1        -0.0464463660
	  4   4   6   8        -0.0356157246
	  4   4   8   6        -0.0356157246
	  2   3   1   5        -0.0351608460
	  3   2   5   1        -0.0351608460
	  4   4   8   8        -0.0340260100
	  2   4   0   6        -0.0298847075
	  4   2   6   0        -0.0298847075

	SCF energy       (chkpt)              =  -75.998403245780310
	Reference energy (file100)            =  -75.998403245780338

	Opposite-spin MP2 correlation energy  =   -0.113642656096945
	Same-spin MP2 correlation energy      =   -0.031263892403704
	MP2 correlation energy                =   -0.144906548500650
      * MP2 total energy                      =  -76.143309794280981

	Opposite-spin CCSD correlation energy =   -0.127677968561791
	Same-spin CCSD correlation energy     =   -0.024103328983464
	CCSD correlation energy               =   -0.151781297546854
      * CCSD total energy                     =  -76.150184543327185


*** tstop() called on lawn-143-215-103-161.lawn.gatech.edu at Fri Apr 27 14:22:57 2012
Module time:
	user time   =       0.25 seconds =       0.00 minutes
	system time =       0.31 seconds =       0.01 minutes
	total time  =          2 seconds =       0.03 minutes
Total time:
	user time   =       1.44 seconds =       0.02 minutes
	system time =       1.45 seconds =       0.02 minutes
	total time  =          6 seconds =       0.10 minutes

*** tstart() called on lawn-143-215-103-161.lawn.gatech.edu
*** at Fri Apr 27 14:22:57 2012


			**************************
			*                        *
			*         CCHBAR         *
			*                        *
			**************************


*** tstop() called on lawn-143-215-103-161.lawn.gatech.edu at Fri Apr 27 14:22:57 2012
Module time:
	user time   =       0.02 seconds =       0.00 minutes
	system time =       0.03 seconds =       0.00 minutes
	total time  =          0 seconds =       0.00 minutes
Total time:
	user time   =       1.46 seconds =       0.02 minutes
	system time =       1.48 seconds =       0.02 minutes
	total time  =          6 seconds =       0.10 minutes

*** tstart() called on lawn-143-215-103-161.lawn.gatech.edu
*** at Fri Apr 27 14:22:57 2012


	**********************************************************
	*  CCEOM: An Equation of Motion Coupled Cluster Program  *
	**********************************************************

	Nuclear Rep. energy (chkpt)   =    8.659382348734434
	SCF energy          (chkpt)   =  -75.998403245780310
	Reference energy    (file100) =  -75.998403245780338
	CCSD energy         (file100) =   -0.151781297546854

	Input parameters:
	-----------------
	Reference wfn   =     RHF
	Reference EOM wfn=     RHF
	Memory (Mbytes) =  250.0
	ABCD            =     NEW
	Cache Level     =    2
	Cache Type      =     LRU
	Num. of threads =     1
	Local CC        =     No


	CCEOM parameters:
	-----------------
	States sought per irrep     = A1 1, A2 0, B1 0, B2 0,
	Max. number of iterations   =    80
	Vectors stored per root     =    12
	Print HbarSS iterations?    =     0
	Excitation range for HBarSS =     2
	Eigenvalue tolerance        = 1.0e-08
	Eigenvalue toleranceSS      = 1.0e-06
	Residual vector tolerance   = 1.0e-06
	Residual vector toleranceSS = 1.0e-06
	Complex tolerance           = 1.0e-12
	Root for properties         =     1
	Sym of state for properties =     A1
	Guess vectors taken from    = SINGLES
	Restart EOM CC3             = NO
	Collapse with last vector   = YES


Symmetry of ground state: A1
Symmetry of excited state: A1
Symmetry of right eigenvector: A1
Seeking states with multiplicity of 1
Obtaining initial guess from singles-singles block of Hbar...Done.

Iter=1    L=1     Root    EOM Energy     Delta E   Res. Norm    Conv?
                     1   0.4938185128   4.94e-01    3.94e-01      N
Iter=2    L=2     Root    EOM Energy     Delta E   Res. Norm    Conv?
                     1   0.4087846517  -8.50e-02    8.40e-02      N
Iter=3    L=3     Root    EOM Energy     Delta E   Res. Norm    Conv?
                     1   0.4050481195  -3.74e-03    3.15e-02      N
Iter=4    L=4     Root    EOM Energy     Delta E   Res. Norm    Conv?
                     1   0.4047845287  -2.64e-04    8.81e-03      N
Iter=5    L=5     Root    EOM Energy     Delta E   Res. Norm    Conv?
                     1   0.4047430130  -4.15e-05    2.52e-03      N
Iter=6    L=6     Root    EOM Energy     Delta E   Res. Norm    Conv?
                     1   0.4047518265   8.81e-06    1.09e-03      N
Iter=7    L=7     Root    EOM Energy     Delta E   Res. Norm    Conv?
                     1   0.4047504537  -1.37e-06    3.17e-04      N
Iter=8    L=8     Root    EOM Energy     Delta E   Res. Norm    Conv?
[...]
   -------------------------------------------------------
    Total      14      14       5       5       5       0
   -------------------------------------------------------

  ==> Integral Setup <==

 MINTS: Wrapper to libmints.
   by Justin Turney

   Calculation information:
      Number of atoms:                   3
      Number of AO shells:              10
      Number of SO shells:               8
      Number of primitives:             22
      Number of atomic orbitals:        14
      Number of basis functions:        14

      Number of irreps:                  4
      Number of functions per irrep: [   8    0    2    4 ]

      Overlap, kinetic, potential, dipole, and quadrupole integrals
        stored in file 35.

      Computing two-electron integrals...done
      Computed 1709 non-zero two-electron integrals.
        Stored in file 33.

  ==> Iterations <==

                        Total Energy        Delta E     Density RMS

   @RHF iter   1:   -70.46510942302990   -1.23297e+01   0.00000e+00 
   @RHF iter   2:   -72.17927707596867   -1.71417e+00   5.82138e-01 DIIS
   @RHF iter   3:   -75.55268429587160   -3.37341e+00   4.98777e-01 DIIS
   @RHF iter   4:   -75.98121663863060   -4.28532e-01   4.47928e-02 DIIS
   @RHF iter   5:   -75.99777128519618   -1.65546e-02   1.19479e-02 DIIS
   @RHF iter   6:   -75.99822035260161   -4.49067e-04   2.58438e-03 DIIS
   @RHF iter   7:   -75.99823698376268   -1.66312e-05   5.60447e-04 DIIS
   @RHF iter   8:   -75.99823736185486   -3.78092e-07   7.71615e-05 DIIS
   @RHF iter   9:   -75.99823737571639   -1.38615e-08   1.49177e-05 DIIS
   @RHF iter  10:   -75.99823737624382   -5.27436e-10   3.10978e-06 DIIS
   @RHF iter  11:   -75.99823737629529   -5.14717e-11   8.98692e-07 DIIS
   @RHF iter  12:   -75.99823737629596   -6.67910e-13   1.46573e-07 DIIS
   @RHF iter  13:   -75.99823737629605   -8.52651e-14   1.49548e-08 DIIS

  ==> Post-Iterations <==

	Orbital Energies (a.u.)
	-----------------------

	Doubly Occupied:                                                      

	   1A1   -20.575249     2A1    -1.337913     1B2    -0.670935  
	   3A1    -0.571230     1B1    -0.506342  

	Virtual:                                                              

	   4A1     0.198874     2B2     0.286140     2B1     0.863657  
	   5A1     0.905736     3B2     0.920725     4B2     1.159000  
	   6A1     1.179815     7A1     1.683365     8A1    43.310472  

	Final Occupation by Irrep:
	         A1    A2    B1    B2 
	DOCC [     3,    0,    1,    1 ]

  Energy converged.

  @RHF Final Energy:   -75.99823737629605

   => Energetics <=

    Nuclear Repulsion Energy =          8.6471668881518582
    One-Electron Energy =            -121.9674700801982397
    Two-Electron Energy =              37.3220658157503209
    DFT Functional Energy =             0.0000000000000000
    Empirical Dispersion Energy =       0.0000000000000000
    Total Energy =                    -75.9982373762960606

  ==> Properties <==

  Nuclear Dipole Moment: (a.u.)
     X:     0.0000      Y:     0.0000      Z:     1.1250

  Electronic Dipole Moment: (a.u.)
     X:     0.0000      Y:     0.0000      Z:    -0.0134

  Dipole Moment: (a.u.)
     X:     0.0000      Y:     0.0000      Z:     1.1116     Total:     1.1116

  Dipole Moment: (Debye)
     X:     0.0000      Y:     0.0000      Z:     2.8254     Total:     2.8254


  Saving occupied orbitals to File 180.

*** tstop() called on lawn-143-215-103-161.lawn.gatech.edu at Fri Apr 27 14:23:21 2012
Module time:
	user time   =       0.05 seconds =       0.00 minutes
	system time =       0.01 seconds =       0.00 minutes
	total time  =          0 seconds =       0.00 minutes
Total time:
	user time   =       6.44 seconds =       0.11 minutes
	system time =       6.64 seconds =       0.11 minutes
	total time  =         30 seconds =       0.50 minutes

*** tstart() called on lawn-143-215-103-161.lawn.gatech.edu
*** at Fri Apr 27 14:23:21 2012


	**************************************************
	* TRANSQT2: Program to transform integrals from  *
	*           the SO basis to the MO basis.        *
	*                                                *
	*            Daniel, David, & Justin             *
	**************************************************


	Input parameters:
	-----------------
	Wave function   =	CCSD
	Backtransform   =	No
	Print Level     =	1
	Print TEIs      =	No
	Reference wfn   =	RHF
	Derivative      =	None
	Delete TEI File =	Yes
	Memory (Mbytes) =	250.0
	Cache Level     =	2
	Cache Type      =	LRU
	Chkpt Parameters:
	--------------------
	Number of irreps     = 4
	Number of SOs        = 14
	Number of MOs        = 14
	Number of active MOs = 14

	Label	# SOs	# FZDC	# DOCC	# SOCC	# VIRT	# FZVR
	-----	-----	------	------	------	------	------
	 A1	   8	    0	    3	    0	    5	    0
	 A2	   0	    0	    0	    0	    0	    0
	 B1	   2	    0	    1	    0	    1	    0
	 B2	   4	    0	    1	    0	    3	    0

	Nuclear Rep. energy (chkpt) =      8.64716688815186
	SCF energy          (chkpt) =    -75.99823737629605

	Presorting SO-basis two-electron integrals.
	Sorting File: SO Ints (pq,rs) nbuckets = 1
	Frozen-core energy =    0.000000000000000
	Starting first half-transformation.
	Sorting half-transformed integrals.
	Starting second half-transformation.
	Two-electron integral transformation complete.

*** tstop() called on lawn-143-215-103-161.lawn.gatech.edu at Fri Apr 27 14:23:21 2012
Module time:
	user time   =       0.00 seconds =       0.00 minutes
	system time =       0.01 seconds =       0.00 minutes
	total time  =          0 seconds =       0.00 minutes
Total time:
	user time   =       6.44 seconds =       0.11 minutes
	system time =       6.65 seconds =       0.11 minutes
	total time  =         30 seconds =       0.50 minutes

*** tstart() called on lawn-143-215-103-161.lawn.gatech.edu
*** at Fri Apr 27 14:23:21 2012


			**************************
			*                        *
			*         CCSORT         *
			*                        *
			**************************


	Input parameters:
	-----------------
	Wave function   =	CCSD
	Reference wfn   =	RHF
	Derivative      =	None
	Memory (Mbytes) =	250.0
	AO Basis        =	NONE
	Make (ab|cd)    =	True
	Make unpacked (ab|cd) =	False
	Cache Level     =	2
	Cache Type      =	LRU
	Local CC        =     No


	Chkpt Parameters:
	--------------------
	Number of irreps     = 4
	Number of MOs        = 14
	Number of active MOs = 14

	Label	# MOs	# FZDC	# DOCC	# SOCC	# VIRT	# FZVR
	-----	-----	------	------	------	------	------
	 A1	   8	    0	    3	    0	    5	    0
	 A2	   0	    0	    0	    0	    0	    0
	 B1	   2	    0	    1	    0	    1	    0
	 B2	   4	    0	    1	    0	    3	    0

	Nuclear Rep. energy (chkpt) =      8.64716688815186
	SCF energy          (chkpt) =    -75.99823737629605

	Size of irrep 0 of <ab|cd> integrals:      0.001 (MW) /      0.010 (MB)
	Size of irrep 1 of <ab|cd> integrals:      0.000 (MW) /      0.000 (MB)
	Size of irrep 2 of <ab|cd> integrals:      0.000 (MW) /      0.001 (MB)
	Size of irrep 3 of <ab|cd> integrals:      0.001 (MW) /      0.007 (MB)
	Total:                                     0.002 (MW) /      0.018 (MB)

	Size of irrep 0 of <ia|bc> integrals:      0.001 (MW) /      0.005 (MB)
	Size of irrep 1 of <ia|bc> integrals:      0.000 (MW) /      0.000 (MB)
	Size of irrep 2 of <ia|bc> integrals:      0.000 (MW) /      0.001 (MB)
	Size of irrep 3 of <ia|bc> integrals:      0.000 (MW) /      0.003 (MB)
	Total:                                     0.001 (MW) /      0.010 (MB)

	Size of irrep 0 of tijab amplitudes:       0.000 (MW) /      0.003 (MB)
	Size of irrep 1 of tijab amplitudes:       0.000 (MW) /      0.000 (MB)
	Size of irrep 2 of tijab amplitudes:       0.000 (MW) /      0.000 (MB)
	Size of irrep 3 of tijab amplitudes:       0.000 (MW) /      0.001 (MB)
	Total:                                     0.001 (MW) /      0.005 (MB)


	Sorting File: A <ij|kl> nbuckets = 1
	Sorting File: B(+) <ab|cd> nbuckets = 1
	Sorting File: C <ia|jb> nbuckets = 1
	Sorting File: D <ij|ab> nbuckets = 1
	Sorting File: E <ai|jk> nbuckets = 1
	Sorting File: F <ia|bc> nbuckets = 1
	One-electron energy          =   -121.96747007287995
	Two-electron (AA) energy     =     14.22169875649666
	Two-electron (BB) energy     =     14.22169875649666
	Two-electron (AB) energy     =     23.10036705193547
	Two-electron energy          =     37.32206580843213
	Frozen-core energy (transqt) =      0.00000000000000
	Reference energy             =    -75.99823737629596

*** tstop() called on lawn-143-215-103-161.lawn.gatech.edu at Fri Apr 27 14:23:21 2012
Module time:
	user time   =       0.03 seconds =       0.00 minutes
	system time =       0.03 seconds =       0.00 minutes
	total time  =          0 seconds =       0.00 minutes
Total time:
	user time   =       6.47 seconds =       0.11 minutes
	system time =       6.68 seconds =       0.11 minutes
	total time  =         30 seconds =       0.50 minutes

*** tstart() called on lawn-143-215-103-161.lawn.gatech.edu
*** at Fri Apr 27 14:23:21 2012

			**************************
			*                        *
			*        CCENERGY        *
			*                        *
			**************************

	Nuclear Rep. energy (chkpt)   =    8.647166888151858
	SCF energy          (chkpt)   =  -75.998237376296046
	Reference energy    (file100) =  -75.998237376295961

	Input parameters:
	-----------------
	Wave function   =     CCSD
	Reference wfn   =     RHF
	Memory (Mbytes) =     250.0
	Maxiter         =     50
	Convergence     =     1.0e-07
	Restart         =     No
	DIIS            =     Yes
	AO Basis        =     NONE
	ABCD            =     NEW
	Cache Level     =     2
	Cache Type      =     LOW
	Print Level     =     1
	Num. of threads =     1
	# Amps to Print =     10
	Print MP2 Amps? =     No
	Analyze T2 Amps =     No
	Print Pair Ener =     No
	Local CC        =     No
	SCS-MP2         =     False
	SCSN-MP2        =     False
	SCS-CCSD        =     False

	            Solving CC Amplitude Equations
	            ------------------------------
  Iter             Energy              RMS        T1Diag      D1Diag    New D1Diag
  ----     ---------------------    ---------   ----------  ----------  ----------
     0        -0.145040822046615    4.151e-08    0.000000    0.000000    0.000000
     1        -0.146520464947368    3.332e-02    0.006269    0.012458    0.012458
     2        -0.150956156898651    1.282e-02    0.007074    0.013723    0.013723
     3        -0.151851171529751    3.894e-03    0.007755    0.014590    0.014590
     4        -0.151900625065894    8.321e-04    0.007763    0.014442    0.014442
     5        -0.151921497603537    2.190e-04    0.007783    0.014420    0.014420
     6        -0.151918722158469    6.144e-05    0.007791    0.014423    0.014423
     7        -0.151917819820041    1.491e-05    0.007794    0.014422    0.014422
     8        -0.151917913320673    3.893e-06    0.007794    0.014422    0.014422
     9        -0.151917790658560    1.013e-06    0.007794    0.014422    0.014422
    10        -0.151917814022563    1.708e-07    0.007794    0.014422    0.014422
    11        -0.151917810348223    4.031e-08    0.007794    0.014422    0.014422

	Iterations converged.


	Largest TIA Amplitudes:
	          3   5        -0.0144215114
	          2   0         0.0120584945
	          4   6         0.0091639294
	          4   7         0.0080250409
	          1   1         0.0061025933
	          2   3         0.0056314251
	          4   8        -0.0046792320
	          1   0         0.0027618322
	          2   1        -0.0019499647
	          1   3         0.0017284732

	Largest TIjAb Amplitudes:
	  3   3   5   5        -0.0570727316
	  4   4   6   6        -0.0553178163
	  2   2   1   1        -0.0464759335
	  4   4   6   8        -0.0356413404
	  4   4   8   6        -0.0356413404
	  2   3   1   5        -0.0351713155
	  3   2   5   1        -0.0351713155
	  4   4   8   8        -0.0339938947
	  2   4   0   6        -0.0300239094
	  4   2   6   0        -0.0300239094

	SCF energy       (chkpt)              =  -75.998237376296046
	Reference energy (file100)            =  -75.998237376295961

	Opposite-spin MP2 correlation energy  =   -0.113743071164572
	Same-spin MP2 correlation energy      =   -0.031297750882043
	MP2 correlation energy                =   -0.145040822046615
      * MP2 total energy                      =  -76.143278198342571

	Opposite-spin CCSD correlation energy =   -0.127799707085075
	Same-spin CCSD correlation energy     =   -0.024118103261564
	CCSD correlation energy               =   -0.151917810348223
      * CCSD total energy                     =  -76.150155186644184


*** tstop() called on lawn-143-215-103-161.lawn.gatech.edu at Fri Apr 27 14:23:22 2012
Module time:
	user time   =       0.25 seconds =       0.00 minutes
	system time =       0.33 seconds =       0.01 minutes
	total time  =          1 seconds =       0.02 minutes
Total time:
	user time   =       6.72 seconds =       0.11 minutes
	system time =       7.01 seconds =       0.12 minutes
	total time  =         31 seconds =       0.52 minutes

*** tstart() called on lawn-143-215-103-161.lawn.gatech.edu
*** at Fri Apr 27 14:23:22 2012


			**************************
			*                        *
			*         CCHBAR         *
			*                        *
			**************************


*** tstop() called on lawn-143-215-103-161.lawn.gatech.edu at Fri Apr 27 14:23:22 2012
Module time:
	user time   =       0.02 seconds =       0.00 minutes
	system time =       0.03 seconds =       0.00 minutes
	total time  =          0 seconds =       0.00 minutes
Total time:
	user time   =       6.74 seconds =       0.11 minutes
	system time =       7.04 seconds =       0.12 minutes
	total time  =         31 seconds =       0.52 minutes

*** tstart() called on lawn-143-215-103-161.lawn.gatech.edu
*** at Fri Apr 27 14:23:22 2012


	**********************************************************
	*  CCEOM: An Equation of Motion Coupled Cluster Program  *
	**********************************************************

	Nuclear Rep. energy (chkpt)   =    8.647166888151858
	SCF energy          (chkpt)   =  -75.998237376296046
	Reference energy    (file100) =  -75.998237376295961
	CCSD energy         (file100) =   -0.151917810348223

	Input parameters:
	-----------------
	Reference wfn   =     RHF
	Reference EOM wfn=     RHF
	Memory (Mbytes) =  250.0
	ABCD            =     NEW
	Cache Level     =    2
	Cache Type      =     LRU
	Num. of threads =     1
	Local CC        =     No


	CCEOM parameters:
	-----------------
	States sought per irrep     = A1 1, A2 0, B1 0, B2 0,
	Max. number of iterations   =    80
	Vectors stored per root     =    12
	Print HbarSS iterations?    =     0
	Excitation range for HBarSS =     2
	Eigenvalue tolerance        = 1.0e-08
	Eigenvalue toleranceSS      = 1.0e-06
	Residual vector tolerance   = 1.0e-06
	Residual vector toleranceSS = 1.0e-06
	Complex tolerance           = 1.0e-12
	Root for properties         =     1
	Sym of state for properties =     A1
	Guess vectors taken from    = SINGLES
	Restart EOM CC3             = NO
	Collapse with last vector   = YES


Symmetry of ground state: A1
Symmetry of excited state: A1
Symmetry of right eigenvector: A1
Seeking states with multiplicity of 1
Obtaining initial guess from singles-singles block of Hbar...Done.

Iter=1    L=1     Root    EOM Energy     Delta E   Res. Norm    Conv?
                     1   0.4930998100   4.93e-01    3.94e-01      N
Iter=2    L=2     Root    EOM Energy     Delta E   Res. Norm    Conv?
                     1   0.4080910244  -8.50e-02    8.41e-02      N
Iter=3    L=3     Root    EOM Energy     Delta E   Res. Norm    Conv?
                     1   0.4043436081  -3.75e-03    3.16e-02      N
Iter=4    L=4     Root    EOM Energy     Delta E   Res. Norm    Conv?
                     1   0.4040780343  -2.66e-04    8.84e-03      N
Iter=5    L=5     Root    EOM Energy     Delta E   Res. Norm    Conv?
                     1   0.4040363643  -4.17e-05    2.53e-03      N
Iter=6    L=6     Root    EOM Energy     Delta E   Res. Norm    Conv?
                     1   0.4040452431   8.88e-06    1.10e-03      N
Iter=7    L=7     Root    EOM Energy     Delta E   Res. Norm    Conv?
                     1   0.4040438859  -1.36e-06    3.18e-04      N
Iter=8    L=8     Root    EOM Energy     Delta E   Res. Norm    Conv?
                     1   0.4040430221  -8.64e-07    9.05e-05      N
Iter=9    L=9     Root    EOM Energy     Delta E   Res. Norm    Conv?
                     1   0.4040428035  -2.19e-07    3.17e-05      N
Iter=10   L=10    Root    EOM Energy     Delta E   Res. Norm    Conv?
                     1   0.4040428270   2.35e-08    8.67e-06      N
Iter=11   L=11    Root    EOM Energy     Delta E   Res. Norm    Conv?
                     1   0.4040428073  -1.97e-08    2.80e-06      N
Iter=12   L=12    Root    EOM Energy     Delta E   Res. Norm    Conv?
                     1   0.4040428153   8.00e-09    1.03e-06      N
Iter=13   L=2     Root    EOM Energy     Delta E   Res. Norm    Conv?
                     1   0.4040428153   3.53e-13    1.03e-06      N
Iter=14   L=3     Root    EOM Energy     Delta E   Res. Norm    Conv?
                     1   0.4040428163   1.01e-09    2.12e-07      Y
Collapsing to only 1 vector(s).

Procedure converged for 1 root(s).
Energy written to chkpt:Etot  -75.7461123703
States per irrep written to chkpt.
EOM CCSD R0 for root 0 =   0.01704703691

Final Energetic Summary for Converged Roots of Irrep A1
                     Excitation Energy              Total Energy
                (eV)     (cm^-1)     (au)             (au)
EOM State 1     10.995    88677.1   0.4040428163   -75.746112370341

Largest components of excited wave function #1:
 RIA (libdpd indices) : (cscf notation)
         2 >   0      :       3a1 >    4a1 :   -0.6767988432
         0 >   0      :       1b2 >    2b2 :    0.0913345935
         0 >   0      :       1b1 >    2b1 :   -0.0399881712
         1 >   0      :       2a1 >    4a1 :    0.0377016915
         2 >   2      :       3a1 >    6a1 :   -0.0349743667
 RIjAb (libdpd indices)     : (cscf notation)
        2   2 >   0   0     :    3a1    3a1 >    4a1    4a1 :    0.1085387957
        2   0 >   0   0     :    3a1    1b2 >    4a1    2b2 :    0.0665796236
        0   2 >   0   0     :    1b2    3a1 >    2b2    4a1 :    0.0665796236
        2   2 >   0   0     :    3a1    3a1 >    2b2    2b2 :    0.0566952190
        2   2 >   0   1     :    3a1    3a1 >    4a1    5a1 :   -0.0549889791

	Putting into environment energy for root of R irrep 1 and root 1.
	Putting into environment CURRENT ENERGY:              -75.7461123703

	Total # of sigma evaluations: 13

*** tstop() called on lawn-143-215-103-161.lawn.gatech.edu at Fri Apr 27 14:23:23 2012
Module time:
	user time   =       0.10 seconds =       0.00 minutes
	system time =       0.07 seconds =       0.00 minutes
	total time  =          1 seconds =       0.02 minutes
Total time:
	user time   =       6.84 seconds =       0.11 minutes
	system time =       7.11 seconds =       0.12 minutes
	total time  =         32 seconds =       0.53 minutes

-------------------------------------------------------------

  Computing gradient from energies (fd_1_0).
	Using 5-point formula.
	Energy without displacement:  -75.7461123703
	Check energies below for precision!
	Forces are for mass-weighted, symmetry-adapted cartesians (in au).

	 Coord      Energy(-2)        Energy(-1)        Energy(+1)        Energy(+2)            Force
	    0    -75.7474482341    -75.7467833812    -75.7454351521    -75.7447516766      0.1348212663
	    1    -75.7462279509    -75.7461718702    -75.7460494903    -75.7459832701      0.0122393079

	Gradient written to file11.
	Gradient saved to wavefunction.

-------------------------------------------------------------

*** PSI4 exiting successfully. Buy a developer a beer!
