    -----------------------------------------------------------------------
          PSI4: An Open-Source Ab Initio Electronic Structure Package
                              PSI 4.0.0-beta1 Driver

               Git: Rev 8268e5ba0276eef671d5bc4a44cf66fa46407463

    J. M. Turney, A. C. Simmonett, R. M. Parrish, E. G. Hohenstein,
    F. A. Evangelista, J. T. Fermann, B. J. Mintz, L. A. Burns, J. J. Wilke,
    M. L. Abrams, N. J. Russ, M. L. Leininger, C. L. Janssen, E. T. Seidl,
    W. D. Allen, H. F. Schaefer, R. A. King, E. F. Valeev, C. D. Sherrill,
    and T. D. Crawford, WIREs Comput. Mol. Sci., (2011) (doi: 10.1002/wcms.93)

                         Additional Contributions by
    A. E. DePrince, M. Saitow, U. Bozkaya, A. Yu. Sokolov
    -----------------------------------------------------------------------


    Using LocalCommunicator (Number of processes = 1)

    Memory level set to 256.000 MB

  ==> Input File <==

--------------------------------------------------------------------------
#! Mk-MRCCSD single point. $^3 \Sigma ^-$ O2 state described using
#! the Ms = 0 component of the triplet.  Uses ROHF triplet orbitals.

memory 250 mb

refnuc    =   28.254539771492  #TEST
refscf    = -149.654222103828  #TEST
refmkccsd = -150.108419685404  #TEST

molecule o2 {
  0 3
  O
  O 1 2.265122720724

  units au
}

set {
  basis cc-pvtz
  e_convergence 10
  d_convergence 10
  r_convergence 10
}

set mcscf {
  reference       rohf
  # The socc and docc needn't be specified; in this case the code will converge correctly without
  docc            [3,0,0,0,0,2,1,1]      # Doubly occupied MOs
  socc            [0,0,1,1,0,0,0,0]      # Singly occupied MOs
}

set psimrcc {
  corr_wfn        ccsd                   # Do Mk-MRCCSD 
  frozen_docc     [1,0,0,0,0,1,0,0]      # Frozen MOs
  restricted_docc [2,0,0,0,0,1,1,1]      # Doubly occupied MOs
  active          [0,0,1,1,0,0,0,0]      # Active MOs
  frozen_uocc     [0,0,0,0,0,0,0,0]      # Frozen virtual MOs
  corr_multp      1                      # Select the Ms = 0 component
  wfn_sym         B1g                    # Select the B1g state
}

energy('psimrcc')
compare_values(refnuc, o2.nuclear_repulsion_energy()     , 9, "Nuclear repulsion energy") #TEST 
compare_values(refscf, get_variable("SCF TOTAL ENERGY")  , 9, "SCF energy")               #TEST 
compare_values(refmkccsd, get_variable("CURRENT ENERGY") , 8, "MkCCSD energy")            #TEST 
--------------------------------------------------------------------------

  Memory set to 250.000 MiB by Python script.

         ------------------------------------------
           MCSCF: a self-consistent field program
            written by Francesco A. Evangelista
         ------------------------------------------    Molecular point group: d2h

    Geometry (in Bohr), charge = 0, multiplicity = 3:

       Center              X                  Y                   Z       
    ------------   -----------------  -----------------  -----------------
           O          0.000000000000     0.000000000000    -1.132561360362
           O          0.000000000000     0.000000000000     1.132561360362

  -AO BASIS SET INFORMATION:
    Name                   = cc-pvtz
    Total number of shells = 20
    Number of primitives   = 52
    Number of AO           = 70
    Number of SO           = 60
    Maximum AM             = 3
    Spherical Harmonics    = TRUE

  -Contraction Scheme:
    Atom   Type   All Primitives // Shells:
   ------ ------ --------------------------
       1     O     18s 5p 2d 1f // 4s 3p 2d 1f 
       2     O     18s 5p 2d 1f // 4s 3p 2d 1f 

  -Basis set on unique center 1: O
     S (      15330.00000000           0.51078207)
       (       2299.00000000           0.95203206)
       (        522.40000000           1.61433092)
       (        147.30000000           2.44336505)
       (         47.55000000           3.04860619)
       (         16.76000000           2.61834614)
       (          6.20700000           1.00523399)
       (          0.68820000          -0.00449647)
     S (      15330.00000000          -0.19366579)
       (       2299.00000000          -0.36322500)
       (        522.40000000          -0.61921899)
       (        147.30000000          -0.96771875)
       (         47.55000000          -1.29402436)
       (         16.76000000          -1.38171633)
       (          6.20700000          -0.84475427)
       (          0.68820000           0.55731756)
     S (          1.75200000           1.08532715)
     S (          0.23840000           0.24315868)
     P (         34.46000000           4.89887506)
       (          7.74900000           4.75026092)
       (          2.28000000           3.20449795)
     P (          0.71560000           0.93816236)
     P (          0.21400000           0.20747095)
     D (          2.31400000           7.14570901)
     D (          0.64500000           0.76408022)
     F (          1.42800000           3.28165496)

  -Basis set on unique center 2: O
     S (      15330.00000000           0.51078207)
       (       2299.00000000           0.95203206)
       (        522.40000000           1.61433092)
       (        147.30000000           2.44336505)
       (         47.55000000           3.04860619)
       (         16.76000000           2.61834614)
       (          6.20700000           1.00523399)
       (          0.68820000          -0.00449647)
     S (      15330.00000000          -0.19366579)
       (       2299.00000000          -0.36322500)
       (        522.40000000          -0.61921899)
       (        147.30000000          -0.96771875)
       (         47.55000000          -1.29402436)
       (         16.76000000          -1.38171633)
       (          6.20700000          -0.84475427)
       (          0.68820000           0.55731756)
     S (          1.75200000           1.08532715)
     S (          0.23840000           0.24315868)
     P (         34.46000000           4.89887506)
       (          7.74900000           4.75026092)
       (          2.28000000           3.20449795)
     P (          0.71560000           0.93816236)
     P (          0.21400000           0.20747095)
     D (          2.31400000           7.14570901)
     D (          0.64500000           0.76408022)
     F (          1.42800000           3.28165496)

 MINTS: Wrapper to libmints.
   by Justin Turney

   Calculation information:
      Number of atoms:                   2
      Number of AO shells:              20
      Number of SO shells:              10
      Number of primitives:             52
      Number of atomic orbitals:        70
      Number of basis functions:        60

      Number of irreps:                  8
      Number of functions per irrep: [  13    3    7    7    3   13    7    7 ]

      Overlap, kinetic, potential, dipole, and quadrupole integrals
        stored in file 35.

      Computing two-electron integrals...done
      Computed 180477 non-zero two-electron integrals.
        Stored in file 33.



  MOs per irrep:                  Ag  B1g  B2g  B3g  Au  B1u  B2u  B3u Total
  ----------------------------------------------------------------------------
  Total                           13    3    7    7    3   13    7    7    60
  Doubly Occupied                  3    0    0    0    0    2    1    1     7
  Active/Singly Occupied           0    0    1    1    0    0    0    0     2
  ----------------------------------------------------------------------------

  Running an SCF calculation

  Generated 1830 pairs
  Distributed as [306 Ag][176 B1g][224 B2g][224 B3g][176 Au][276 B1u][224 B2u][224 B3u]
  batch   0 pq = [       0,     306] index = [               0,           46971]

  Allocated the PK matrix (46971 elements) 
  Allocated the  K matrix (46971 elements) 
  Reading the two-electron integrals to form PK and K ... 
  batch   0 ... done.


  =========================================================================================
         Cycle          Energy               D(Energy)            D(Density)            DIIS
  =========================================================================================== S
  @SCF    0     -132.454086102523    -132.454086102523       0.043741989486 S
  @SCF    1     -141.506771588263      -9.052685485740       0.057766840879 S
  @SCF    2     -148.080173786074      -6.573402197811       0.049646832799 S
  @SCF    3     -149.261597448991      -1.181423662917       0.013266883311 S
  @SCF    4     -149.597798391040      -0.336200942049       0.005911260797 S
  @SCF    5     -149.645076509337      -0.047278118296       0.002535612039 S
  @SCF    6     -149.652832581034      -0.007756071698       0.000898168477 S/E
  @SCF    7     -149.654003773594      -0.001171192560       0.000381842823 S/E
  @SCF    8     -149.654222041851      -0.000218268257       0.000101918255 S/E
  @SCF    9     -149.654222103581      -0.000000061730       0.000003235517 S/E
  @SCF   10     -149.654222103822      -0.000000000241       0.000000213902 S/E
  @SCF   11     -149.654222103832      -0.000000000010       0.000000041766 S/E
  @SCF   12     -149.654222103832      -0.000000000000       0.000000009246 S/E
  @SCF   13     -149.654222103832      -0.000000000000       0.000000000719 S/E
  @SCF   14     -149.654222103832      -0.000000000000       0.000000000032
  =========================================================================================

      * SCF total energy   =    -149.654222103832


  End of SCF
  MOs orthonormality check passed.

  Orbitals are canonicalized as:
  inactive (docc + uocc) : Fock(core)
  active   (actv)        : Fock(core)

  =========================================================================
  Eigenvalues (Eh)
  -------------------------------------------------------------------------
  Doubly occupied orbitals
      1    -20.727369  Ag      2    -20.726389 B1u      3     -1.656146  Ag
      4     -1.094488 B1u      5     -0.735680  Ag      6     -0.707038 B3u
      7     -0.707038 B2u
  Active orbitals
      8     -0.204718 B2g      9     -0.204718 B3g
  Unoccupied orbitals
     10      0.409909 B1u     11      0.711402 B2u     12      0.711402 B3u
     13      0.734227  Ag     14      0.762023 B1u     15      0.826056 B2g
     16      0.826056 B3g     17      0.886614  Ag     18      1.447330 B1u
     19      1.472223 B1g     20      1.472223  Ag     21      1.571902 B2u
     22      1.571902 B3u     23      1.911324 B1u     24      1.911324  Au
     25      2.412487  Ag     26      2.464041 B1u     27      2.484764 B2g
     28      2.484764 B3g     29      3.908656 B3u     30      3.908656 B2u
     31      4.077196  Ag     32      4.196433 B2g     33      4.196433 B3g
     34      4.992279 B1g     35      4.992279  Ag     36      5.074487 B3u
     37      5.074487 B2u     38      5.207220 B1u     39      5.338255 B2u
     40      5.338255 B3u     41      5.352019  Ag     42      5.598166 B3g
     43      5.598166 B2g     44      6.165276  Au     45      6.165276 B1u
     46      6.219227 B1u     47      6.551500 B1g     48      6.551500  Ag
     49      6.764257  Au     50      6.764257 B1u     51      6.816088 B2g
     52      6.816088 B3g     53      6.918945 B3u     54      6.918945 B2u
     55      7.208486 B1u     56      7.548459  Ag     57      7.690350 B2g
     58      7.690350 B3g     59      8.091421  Ag     60     13.060869 B1u
  =========================================================================


  MCSCF Execution Completed.


*** tstop() called on lawn-143-215-103-161.lawn.gatech.edu at Fri Apr 27 14:41:29 2012
Module time:
	user time   =       0.63 seconds =       0.01 minutes
	system time =       0.10 seconds =       0.00 minutes
	total time  = 1335552089 seconds = 22259201.48 minutes
Total time:
	user time   =       0.63 seconds =       0.01 minutes
	system time =       0.10 seconds =       0.00 minutes
	total time  = 1335552089 seconds = 22259201.48 minutes

  MRCC          MRCC
   MRCC  MRCC  MRCC
   MRCC  MRCC  MRCC      PSIMRCC Version 0.9.3.3, July 2009
   MRCC  MRCC  MRCC      Multireference Coupled Cluster, written by
     MRCCMRCCMRCC        Francesco A. Evangelista and Andrew C. Simmonett
         MRCC            Compiled on Apr 27 2012 at 13:46:20
         MRCC            id = 6a707c99fd2213714c6c78cfcd145480721f0359 
       MRCCMRCC

  ==============================================================================
  System Info:
  ------------------------------------------------------------------------------
  Nuclear Energy   = 28.254539771     SCF Energy       = -149.654222104 

  MOs and Symmetry:
  ------------------------------------------------------------------------------
  nirreps          = 8                root             = 0         
  nso              = 60               nmo              = 60        
  nael             = 8                nbel             = 8         
  nactive_ael      = 1                nactive_bel      = 1         

  Details of the Computation:
  ------------------------------------------------------------------------------

  MOs per irrep:                    Ag  B1g  B2g  B3g  Au  B1u  B2u  B3u Total
  ------------------------------------------------------------------------------
  Total                             13    3    7    7    3   13    7    7    60
  Frozen Occupied                    1    0    0    0    0    1    0    0     2
  Doubly Occupied                    2    0    0    0    0    1    1    1     5
  Active                             0    0    1    1    0    0    0    0     2
  External                          10    3    6    6    3   11    6    6    51
  Frozen Virtual                     0    0    0    0    0    0    0    0     0

  Model space
  ------------------------------------------------------------------------------
   0  |[22][][-][+][][2][2][2]>
   1  |[22][][+][-][][2][2][2]>
  ==============================================================================

  Allocated work array of size 141704 (0.14 MiB)
  Allocated buffer array of size 12431864 (11.86 MiB)	Presorting SO-basis two-electron integrals.
	Sorting File: SO Ints (nn|nn) nbuckets = 1
	Transforming the one-electron integrals and constructing Fock matrices
	Starting first half-transformation.
	Sorting half-transformed integrals.
	First half integral transformation complete.
	Starting second half-transformation.
	Two-electron integral transformation complete.


  Presorting two-electron integrals from IWL buffer
    Memory available                       =      233593708 bytes
    Memory available for presorting        =      175195281 bytes (75.0%)
    Memory required for in-core presort    =        1737192 bytes
    Presorting is not required
    Reading irreps 0 -> 7 (185261 non-zero integrals)

  Sorting integrals:
    Memory available                       =      233564908 bytes
    Memory available for sorting           =      116782454 bytes (50.0%)

    Pass 1:
    Setting up the matrix list: added 480 matrices blocks
    Integrals from irreps 0 -> 7 will be read in core

    Frozen-core energy                     =       -130.574171057

  Computing storage strategy:
    Input memory                           =      250000000 bytes
    Free memory                            =      233564908 bytes
    Free memory available for matrices     =      226557960 bytes ( 97%)
    Memory required by fock matrices       =          17168 bytes
    Memory required by integrals           =       14903336 bytes
    Memory required by other matrices      =        9089808 bytes
    Memory required for in-core algorithm  =       24010312 bytes
    PSIMRCC will perform a full in-core computation

  Options:
  ----------------------------------------------------------------------------
  ACTIVE               => [ 0, 0, 1, 1, 0, 0, 0, 0 ] !
  BENCH                => 0                           
  CC_NUM_THREADS       => 1                           
  CORR_ANSATZ          => MK                          
  CORR_CCSD_T          => STANDARD                    
  CORR_CHARGE          => 0                           
  CORR_MULTP           => 1                          !
  CORR_REFERENCE       => GENERAL                     
  CORR_WFN             => CCSD                       !
  COUPLING             => CUBIC                       
  COUPLING_TERMS       => TRUE                        
  DAMPING_PERCENTAGE   => 0                           
  DEBUG                => 0                           
  DERTYPE              => NONE                        
  DIAGONALIZE_HEFF     => FALSE                       
  DIAGONAL_CCSD_T      => TRUE                        
  DIIS_MAX_VECS        => 7                           
  DIIS_START           => 2                           
  DOCC                 => [  ]                        
  E_CONVERGENCE        => 1e-10                      !
  FAVG_CCSD_T          => FALSE                       
  FOLLOW_ROOT          => 1                           
  FREEZE_CORE          => FALSE                       
  FROZEN_DOCC          => [ 1, 0, 0, 0, 0, 1, 0, 0 ] !
  FROZEN_UOCC          => [ 0, 0, 0, 0, 0, 0, 0, 0 ] !
  HEFF4                => TRUE                        
  HEFF_PRINT           => FALSE                       
  LOCK_SINGLET         => FALSE                       
  MAT_NUM_COLUMN_PRINT => 5                           
  MAXITER              => 100                         
  MP2_CCSD_METHOD      => II                          
  MP2_GUESS            => TRUE                        
  NO_SINGLES           => FALSE                       
  NUM_FROZEN_DOCC      => 0                           
  NUM_FROZEN_UOCC      => 0                           
  OFFDIAGONAL_CCSD_T   => TRUE                        
  PERTURB_CBS          => FALSE                       
  PERTURB_CBS_COUPLING => TRUE                        
  PRINT                => 1                           
  PROPERTIES           => [  ]                        
  PT_ENERGY            => SECOND_ORDER                
  PUREAM               => TRUE                        
  RESTRICTED_DOCC      => [ 2, 0, 0, 0, 0, 1, 1, 1 ] !
  R_CONVERGENCE        => 1e-10                      !
  SMALL_CUTOFF         => 0                           
  SOCC                 => [  ]                        
  TIKHONOW_MAX         => 5                           
  TIKHONOW_OMEGA       => 0                           
  TIKHONOW_TRIPLES     => FALSE                       
  TRIPLES_ALGORITHM    => RESTRICTED                  
  TRIPLES_DIIS         => FALSE                       
  UNITS                => ANGSTROMS                   
  USE_SPIN_SYM         => TRUE                        
  USE_SPIN_SYMMETRY    => TRUE                        
  WFN                  => SCF                         
  WFN_SYM              => B1G                        !
  ZERO_INTERNAL_AMPS   => TRUE                        



  Heff Matrix

        -149.630423435839         0.023798667993
           0.023798667993      -149.630423435839

  Left Matrix

          -0.707106781187         0.707106781187
           0.707106781187         0.707106781187

  Right Matrix

          -0.707106781187         0.707106781187
           0.707106781187         0.707106781187

  Real                  Imaginary

       -149.654222103832           0.000000000000
       -149.606624767846           0.000000000000


  The eigenvalue for root 0 is -149.654222103832 (0.000000000000)

  Heff Matrix

     -149.630423435839305      0.023798667992840
        0.023798667992840   -149.630423435839305

  Most important determinants in the wave function

  determinant  eigenvector   eigenvector^2

            1    0.707107     0.500000  |[22][][+][-][][2][2][2]>
            0   -0.707107     0.500000  |[22][][-][+][][2][2][2]>

  ==============================================================================
  	Multireference Coupled Cluster
		Using the DPD Library
  ==============================================================================

  ------------------------------------------------------------------------------
  @CC Cycle      Energy          Delta E    ||DeltaT1|| ||DeltaT2|| Timing  DIIS
  @CC           (Hartree)       (Hartree)                           (Sec)
  ------------------------------------------------------------------------------
  @CC   0   -149.654222103832   0.0000e+00   0.000e+00   0.000e+00       0
  Tikhonow regularization turned on.  Omega = 0.000e+00   S
  @CC   1   -150.127395108585  -4.7317e-01   5.207e-02   3.327e-01       0
  Tikhonow regularization turned on.  Omega = 0.000e+00   S
  @CC   2   -150.088398994109   3.8996e-02   3.462e-02   8.406e-02       0
  Tikhonow regularization turned on.  Omega = 0.000e+00   S
  @CC   3   -150.111829301158  -2.3430e-02   1.035e-02   2.415e-02       0
  Tikhonow regularization turned on.  Omega = 0.000e+00   S
  @CC   4   -150.106246782575   5.5825e-03   4.476e-03   1.060e-02       1
  Tikhonow regularization turned on.  Omega = 0.000e+00   S
  @CC   5   -150.108815498234  -2.5687e-03   1.299e-03   3.231e-03       1   S
  @CC   6   -150.108153087533   6.6241e-04   6.127e-04   1.785e-03       1   S/E
  @CC   7   -150.108450403434  -2.9732e-04   1.605e-04   6.586e-04       1   S
  @CC   8   -150.108421226916   2.9177e-05   1.814e-05   6.203e-05       1   S
  @CC   9   -150.108423858006  -2.6311e-06   8.261e-06   2.169e-05       1   S
  @CC  10   -150.108420783259   3.0747e-06   1.155e-06   1.081e-05       1   S
  @CC  11   -150.108420698886   8.4374e-08   9.903e-07   5.681e-06       1   S
  @CC  12   -150.108420099877   5.9901e-07   2.389e-07   3.140e-06       1   S
  @CC  13   -150.108419958722   1.4115e-07   1.829e-07   1.763e-06       2   S/E
  @CC  14   -150.108419665878   2.9284e-07   7.135e-08   1.002e-06       2   S
  @CC  15   -150.108419683788  -1.7910e-08   1.079e-08   3.905e-08       2   S
  @CC  16   -150.108419685257  -1.4688e-09   4.388e-09   1.268e-08       2   S
  @CC  17   -150.108419685283  -2.6006e-11   1.080e-09   5.969e-09       2   S
  @CC  18   -150.108419685429  -1.4586e-10   5.293e-10   3.124e-09       2   S
  @CC  19   -150.108419685404   2.4698e-11   2.051e-10   1.637e-09       2   S
  @CC  20   -150.108419685420  -1.5177e-11   1.064e-10   8.883e-10       2   S/E
  @CC  21   -150.108419685414   5.9686e-12   5.009e-11   4.768e-10       3   S
  @CC  22   -150.108419685410   3.2685e-12   3.754e-12   2.305e-11       3
  ------------------------------------------------------------------------------

      * Mk-MRCCSD total energy      =    -150.108419685410


  Heff Matrix

     -150.088043495020429      0.020376190389867
        0.020376190389867   -150.088043495020429

  Most important determinants in the wave function

  determinant  eigenvector   eigenvector^2

            0   -0.707107     0.500000  |[22][][-][+][][2][2][2]>
            1    0.707107     0.500000  |[22][][+][-][][2][2][2]>

  Timing for singles and doubles:             2.687085 s

  PSIMRCC job completed.
  Wall Time =             3.743934 s
  GEMM Time =             1.073605 s

  ==============================================================================
  Memory Usage Report

  Maximum memory used:     38.6 Mb 
  Number of objects still in memory: 0       Current bytes used: 0             
  ==============================================================================

*** PSI4 exiting successfully. Buy a developer a beer!
