    -----------------------------------------------------------------------
          PSI4: An Open-Source Ab Initio Electronic Structure Package
                              PSI 4.0.0-beta1 Driver

               Git: Rev 8268e5ba0276eef671d5bc4a44cf66fa46407463

    J. M. Turney, A. C. Simmonett, R. M. Parrish, E. G. Hohenstein,
    F. A. Evangelista, J. T. Fermann, B. J. Mintz, L. A. Burns, J. J. Wilke,
    M. L. Abrams, N. J. Russ, M. L. Leininger, C. L. Janssen, E. T. Seidl,
    W. D. Allen, H. F. Schaefer, R. A. King, E. F. Valeev, C. D. Sherrill,
    and T. D. Crawford, WIREs Comput. Mol. Sci., (2011) (doi: 10.1002/wcms.93)

                         Additional Contributions by
    A. E. DePrince, M. Saitow, U. Bozkaya, A. Yu. Sokolov
    -----------------------------------------------------------------------


    Using LocalCommunicator (Number of processes = 1)

    Memory level set to 256.000 MB

  ==> Input File <==

--------------------------------------------------------------------------
#! DCFT-06 calculation for the He dimer. This performs a
#! two-step update of the orbitals and cumulant, using DIIS extrapolation.
#! Four-virtual integrals are handled in the MO Basis.

memory 250 mb

refnuc      =  0.66147151073750 #TEST
refscf      = -5.71032245823742 #TEST
refmp2      = -5.76128209224125 #TEST
refdcftscf  = -5.62714230598082 #TEST
refdcft     = -5.77531659914793 #TEST

molecule he2 {
    He
    He 1 3.2
}

set globals {
    r_convergence 11
    reference   uhf
    ao_basis    none
    algorithm   twostep
    basis       6-31G**
}

energy('dcft')

compare_values(refnuc, he2.nuclear_repulsion_energy(), 10, "Nuclear Repulsion Energy"); #TEST
compare_values(refscf, get_variable("SCF TOTAL ENERGY"), 10, "SCF Energy");            #TEST
compare_values(refmp2, get_variable("MP2 ENERGY"), 8, "MP2 Energy");                   #TEST
compare_values(refdcft, get_variable("DCFT ENERGY"), 8, "DCFT Energy");                #TEST
compare_values(refdcftscf, get_variable("DCFT SCF ENERGY"), 8, "DCFT SCF Energy");     #TEST
--------------------------------------------------------------------------

  Memory set to 250.000 MiB by Python script.

*** tstart() called on lawn-143-215-103-161.lawn.gatech.edu
*** at Fri Apr 27 14:42:06 2012

	There are an even number of electrons - assuming singlet.
	Specify the multiplicity with the MULTP option in the
	input if this is incorrect


         ---------------------------------------------------------
                                   SCF
            by Justin Turney, Rob Parrish, and Andy Simmonett
                              UHF Reference
                        1 Threads,    250 MiB Core
         ---------------------------------------------------------

  ==> Geometry <==

    Molecular point group: d2h

    Geometry (in Angstrom), charge = 0, multiplicity = 1:

       Center              X                  Y                   Z       
    ------------   -----------------  -----------------  -----------------
          HE          0.000000000000     0.000000000000    -1.600000000000
          HE          0.000000000000     0.000000000000     1.600000000000

  Running in d2h symmetry.

  Nuclear repulsion =    0.661471510737500

  Charge       = 0
  Multiplicity = 1
  Electrons    = 4
  Nalpha       = 2
  Nbeta        = 2

  ==> Algorithm <==

  SCF Algorithm Type is PK.
  DIIS enabled.
  MOM disabled.
  Fractional occupation disabled.
  Guess Type is CORE.
  Energy threshold   = 1.00e-08
  Density threshold  = 1.00e-08
  Integral threshold = 0.00e+00

  ==> Primary Basis <==

  Basis Set: 6-31G**
    Number of shells: 6
    Number of basis function: 10
    Number of Cartesian functions: 10
    Spherical Harmonics?: false
    Max angular momentum: 1

  ==> Pre-Iterations <==

  Minimum eigenvalue in the overlap matrix is 3.6378333196E-01.
  Using Symmetric Orthogonalization.
  SCF Guess: Core (One-Electron) Hamiltonian.

  Initial UHF energy:    -3.98775523935260

   -------------------------------------------------------
    Irrep   Nso     Nmo     Nalpha   Nbeta   Ndocc  Nsocc
   -------------------------------------------------------
     Ag         3       3       1       1       1       0
     B1g        0       0       0       0       0       0
     B2g        1       1       0       0       0       0
     B3g        1       1       0       0       0       0
     Au         0       0       0       0       0       0
     B1u        3       3       1       1       1       0
     B2u        1       1       0       0       0       0
     B3u        1       1       0       0       0       0
   -------------------------------------------------------
    Total      10      10       2       2       2       0
   -------------------------------------------------------

  ==> Integral Setup <==

 MINTS: Wrapper to libmints.
   by Justin Turney

   Calculation information:
      Number of atoms:                   2
      Number of AO shells:               6
      Number of SO shells:               3
      Number of primitives:             10
      Number of atomic orbitals:        10
      Number of basis functions:        10

      Number of irreps:                  8
      Number of functions per irrep: [   3    0    1    1    0    3    1    1 ]

      Overlap, kinetic, potential, dipole, and quadrupole integrals
        stored in file 35.

      Computing two-electron integrals...done
      Computed 292 non-zero two-electron integrals.
        Stored in file 33.

  ==> Iterations <==

                        Total Energy        Delta E     Density RMS

   @UHF iter   1:    -5.48297430054139   -1.49522e+00   0.00000e+00 
   @UHF iter   2:    -5.70880666076290   -2.25832e-01   8.64102e-02 DIIS
   @UHF iter   3:    -5.71032234126941   -1.51568e-03   7.38726e-03 DIIS
   @UHF iter   4:    -5.71032245696616   -1.15697e-07   6.03542e-05 DIIS
   @UHF iter   5:    -5.71032245823740   -1.27124e-09   6.67116e-06 DIIS
   @UHF iter   6:    -5.71032245823742   -2.48690e-14   2.86629e-08 DIIS

  ==> Post-Iterations <==

   @Spin Contamination Metric:  -8.881784197E-16
   @S^2 Expected:                0.000000000E+00
   @S^2 Observed:               -8.881784197E-16
   @S   Expected:                0.000000000E+00
   @S   Observed:                0.000000000E+00

	Orbital Energies (a.u.)
	-----------------------

	Alpha Occupied:                                                       

	   1Ag    -0.915192     1B1u   -0.913062  

	Alpha Virtual:                                                        

	   2Ag     1.385550     2B1u    1.414364     3Ag     2.181995  
	   1B2u    2.182002     1B3u    2.182002     1B3g    2.182002  
	   1B2g    2.182002     3B1u    2.182025  

	Beta Occupied:                                                        

	   1Ag    -0.915192     1B1u   -0.913062  

	Beta Virtual:                                                         

	   2Ag     1.385550     2B1u    1.414364     3Ag     2.181995  
	   1B2u    2.182002     1B3u    2.182002     1B3g    2.182002  
	   1B2g    2.182002     3B1u    2.182025  

	Final Occupation by Irrep:
	         Ag   B1g   B2g   B3g    Au   B1u   B2u   B3u 
	DOCC [     1,    0,    0,    0,    0,    1,    0,    0 ]
	SOCC [     0,    0,    0,    0,    0,    0,    0,    0 ]

  Energy converged.

  @UHF Final Energy:    -5.71032245823742

   => Energetics <=

    Nuclear Repulsion Energy =          0.6614715107375000
    One-Electron Energy =              -9.0870793109718520
    Two-Electron Energy =               2.7152853419969305
    DFT Functional Energy =             0.0000000000000000
    Empirical Dispersion Energy =       0.0000000000000000
    Total Energy =                     -5.7103224582374228

  ==> Properties <==

  Nuclear Dipole Moment: (a.u.)
     X:     0.0000      Y:     0.0000      Z:     0.0000

  Electronic Dipole Moment: (a.u.)
     X:     0.0000      Y:     0.0000      Z:     0.0000

  Dipole Moment: (a.u.)
     X:     0.0000      Y:     0.0000      Z:     0.0000     Total:     0.0000

  Dipole Moment: (Debye)
     X:     0.0000      Y:     0.0000      Z:     0.0000     Total:     0.0000


  Saving occupied orbitals to File 180.

*** tstop() called on lawn-143-215-103-161.lawn.gatech.edu at Fri Apr 27 14:42:06 2012
Module time:
	user time   =       0.03 seconds =       0.00 minutes
	system time =       0.01 seconds =       0.00 minutes
	total time  =          0 seconds =       0.00 minutes
Total time:
	user time   =       0.03 seconds =       0.00 minutes
	system time =       0.01 seconds =       0.00 minutes
	total time  =          0 seconds =       0.00 minutes

*** tstart() called on lawn-143-215-103-161.lawn.gatech.edu
*** at Fri Apr 27 14:42:06 2012



		*******************************************
		*  DCFT - A Density Cumulant Functional   *
		*  Theory code written by Andy Simmonett  *
		*******************************************



	Computing MP2 amplitude guess...

	*Total Hartree-Fock energy        =   -5.710322458237422
	 Alpha - Alpha MP2 energy         =   -0.000001349511459
	 Alpha - Beta  MP2 energy         =   -0.050956934980514
	 Beta  - Beta  MP2 energy         =   -0.000001349511459
	 Total MP2 correlation energy     =   -0.050959634003432
	*Total MP2 energy                 =   -5.761282092240854


	*=================================================================================*
	* Cycle  RMS [F, Kappa]   RMS Lambda Error   delta E        Total Energy     DIIS *
	*---------------------------------------------------------------------------------*
	                          *** Macro Iteration 1 ***
	Cumulant Iterations
	* 1        2.531e-11         9.396e-03     -8.615e-02     -5.847431960367234      *
	* 2        2.531e-11         2.115e-03     -8.472e-03     -5.855904296140355      *
	* 3        2.531e-11         4.987e-04     -1.978e-03     -5.857882094906848  S   *
	* 4        2.531e-11         1.221e-04     -4.662e-04     -5.858348327534815  S   *
	* 5        2.531e-11         3.073e-05     -1.351e-04     -5.858483422754349  S/E *
	* 6        2.531e-11         9.177e-09     -1.282e-05     -5.858496246777025  S/E *
	* 7        2.531e-11         1.198e-09      2.757e-10     -5.858496246501331  S/E *
	* 8        2.531e-11         1.877e-10     -1.019e-09     -5.858496247520312  S/E *
	* 9        2.531e-11         8.720e-11      1.768e-10     -5.858496247343479  S/E *
	* 10       2.531e-11         1.565e-12      3.719e-11     -5.858496247306292  S/E *
	* 11       2.531e-11         2.869e-13      1.448e-13     -5.858496247306147  S/E *
	Orbital Updates
	* 1        7.925e-06         2.869e-13      8.318e-02     -5.775316393160152  S   *
	* 2        5.934e-07         2.869e-13     -6.464e-10     -5.775316393806571  S   *
	* 3        4.448e-08         2.869e-13     -3.622e-12     -5.775316393810193  S   *
	* 4        3.338e-09         2.869e-13     -2.132e-14     -5.775316393810214  S/E *
	* 5        2.149e-13         2.869e-13      8.882e-16     -5.775316393810213  S/E *
	                          *** Macro Iteration 2 ***
	Cumulant Iterations
	* 1        2.149e-13         5.015e-07     -3.966e-07     -5.775316790370555  S   *
	* 2        2.149e-13         7.596e-08     -7.946e-08     -5.775316869835359  S   *
	* 3        2.149e-13         1.349e-08     -2.541e-08     -5.775316895250294  S/E *
	* 4        2.149e-13         3.937e-10     -3.090e-09     -5.775316898340090  S/E *
	* 5        2.149e-13         9.125e-11     -1.622e-10     -5.775316898502306  S/E *
	* 6        2.149e-13         1.221e-11     -1.265e-11     -5.775316898514959  S/E *
	* 7        2.149e-13         2.137e-12      1.029e-12     -5.775316898513929  S/E *
	Orbital Updates
	* 1        8.785e-09         2.137e-12      2.991e-07     -5.775316599366504  S   *
	* 2        6.606e-10         2.137e-12      0.000e+00     -5.775316599366504  S   *
	* 3        4.973e-11         2.137e-12      8.882e-16     -5.775316599366503  S   *
	* 4        3.746e-12         2.137e-12     -8.882e-16     -5.775316599366504  S/E *
	                          *** Macro Iteration 3 ***
	Cumulant Iterations
	* 1        3.746e-12         3.395e-10      4.672e-10     -5.775316598899278  S   *
	* 2        3.746e-12         6.175e-11      9.363e-11     -5.775316598805646  S   *
	* 3        3.746e-12         1.287e-11      3.021e-11     -5.775316598775436  S/E *
	* 4        3.746e-12         3.445e-13      3.444e-12     -5.775316598771992  S/E *
	Orbital Updates
	* 1        9.926e-12         3.445e-13     -3.523e-10     -5.775316599124320  S   *
	* 2        7.488e-13         3.445e-13      8.882e-16     -5.775316599124319  S   *
	                          *** Macro Iteration 4 ***
	Cumulant Iterations
	* 1        7.488e-13         3.438e-13     -4.494e-13     -5.775316599124769  S   *
	Orbital Updates
	* 1        4.633e-14         3.438e-13      2.416e-13     -5.775316599124527  S   *
	*=================================================================================*

	*DCFT SCF Energy                                 =   -5.627142305946149
	*DCFT Lambda Energy                              =   -0.148174293178379
	*DCFT Total Energy                               =   -5.775316599124527

	Orbital occupations:
		Alpha occupied orbitals
		   1Ag       0.9922     1B1u      0.9922  

		Beta occupied orbitals
		   1Ag       0.9922     1B1u      0.9922  

		Alpha virtual orbitals
		   2Ag       0.0043     2B1u      0.0043     3Ag       0.0012     3B1u      0.0012  
		   1B3g      0.0012     1B2g      0.0012     1B3u      0.0012     1B2u      0.0012  
		

		Beta virtual orbitals
		   2Ag       0.0043     2B1u      0.0043     3Ag       0.0012     3B1u      0.0012  
		   1B3g      0.0012     1B2g      0.0012     1B3u      0.0012     1B2u      0.0012  
		


*** tstop() called on lawn-143-215-103-161.lawn.gatech.edu at Fri Apr 27 14:42:08 2012
Module time:
	user time   =       0.21 seconds =       0.00 minutes
	system time =       0.23 seconds =       0.00 minutes
	total time  =          2 seconds =       0.03 minutes
Total time:
	user time   =       0.24 seconds =       0.00 minutes
	system time =       0.24 seconds =       0.00 minutes
	total time  =          2 seconds =       0.03 minutes

*** PSI4 exiting successfully. Buy a developer a beer!
