    -----------------------------------------------------------------------
          PSI4: An Open-Source Ab Initio Electronic Structure Package
                              PSI 4.0.0-beta1 Driver

               Git: Rev 8268e5ba0276eef671d5bc4a44cf66fa46407463

    J. M. Turney, A. C. Simmonett, R. M. Parrish, E. G. Hohenstein,
    F. A. Evangelista, J. T. Fermann, B. J. Mintz, L. A. Burns, J. J. Wilke,
    M. L. Abrams, N. J. Russ, M. L. Leininger, C. L. Janssen, E. T. Seidl,
    W. D. Allen, H. F. Schaefer, R. A. King, E. F. Valeev, C. D. Sherrill,
    and T. D. Crawford, WIREs Comput. Mol. Sci., (2011) (doi: 10.1002/wcms.93)

                         Additional Contributions by
    A. E. DePrince, M. Saitow, U. Bozkaya, A. Yu. Sokolov
    -----------------------------------------------------------------------


    Using LocalCommunicator (Number of processes = 1)

    Memory level set to 256.000 MB

  ==> Input File <==

--------------------------------------------------------------------------
#! SCF DZ allene geometry optimzation, with Cartesian input

memory 250 mb

nucenergy =   59.2532646680161                                                                 #TEST
refenergy = -115.8302823663                                                                    #TEST

molecule allene {
  H -2.0  0.0  1.0
  H -2.0  0.0 -1.0
  C -1.5  0.0  0.0
  C  0.0  0.0  0.0
  C  1.5  0.0  0.0
  H  2.0  1.0  0.0
  H  2.0 -1.0  0.0
}

set global {
  basis DZ
  e_convergence 10
  d_convergence 10
  dertype none
}

thisenergy = optimize('scf')

compare_values(nucenergy, allene.nuclear_repulsion_energy(), 2, "Nuclear repulsion energy")    #TEST
compare_values(refenergy, thisenergy, 2, "Reference energy")                                   #TEST
--------------------------------------------------------------------------

  Memory set to 250.000 MiB by Python script.

*** tstart() called on lawn-143-215-103-161.lawn.gatech.edu
*** at Fri Apr 27 13:58:12 2012

	There are an even number of electrons - assuming singlet.
	Specify the multiplicity with the MULTP option in the
	input if this is incorrect


         ---------------------------------------------------------
                                   SCF
            by Justin Turney, Rob Parrish, and Andy Simmonett
                              RHF Reference
                        1 Threads,    250 MiB Core
         ---------------------------------------------------------

  ==> Geometry <==

    Molecular point group: d2

    Geometry (in Angstrom), charge = 0, multiplicity = 1:

       Center              X                  Y                   Z       
    ------------   -----------------  -----------------  -----------------
           H         -2.000000000000    -0.707106781187     0.707106781187
           H         -2.000000000000     0.707106781187    -0.707106781187
           C         -1.500000000000    -0.000000000000     0.000000000000
           C          0.000000000000    -0.000000000000     0.000000000000
           C          1.500000000000     0.000000000000     0.000000000000
           H          2.000000000000     0.707106781187     0.707106781187
           H          2.000000000000    -0.707106781187    -0.707106781187

  Running in d2 symmetry.

  Nuclear repulsion =   53.306928043214029

  Charge       = 0
  Multiplicity = 1
  Electrons    = 22
  Nalpha       = 11
  Nbeta        = 11

  ==> Algorithm <==

  SCF Algorithm Type is PK.
  DIIS enabled.
  MOM disabled.
  Fractional occupation disabled.
  Guess Type is CORE.
  Energy threshold   = 1.00e-10
  Density threshold  = 1.00e-10
  Integral threshold = 0.00e+00

  ==> Primary Basis <==

  Basis Set: DZ
    Number of shells: 26
    Number of basis function: 38
    Number of Cartesian functions: 38
    Spherical Harmonics?: true
    Max angular momentum: 1

  ==> Pre-Iterations <==

  Minimum eigenvalue in the overlap matrix is 4.9396810256E-03.
  Using Symmetric Orthogonalization.
  SCF Guess: Core (One-Electron) Hamiltonian.

  Initial RHF energy:   -86.29193429718082

   -------------------------------------------------------
    Irrep   Nso     Nmo     Nalpha   Nbeta   Ndocc  Nsocc
   -------------------------------------------------------
     A         12      12       4       4       4       0
     B1         8       8       2       2       2       0
     B2         8       8       2       2       2       0
     B3        10      10       3       3       3       0
   -------------------------------------------------------
    Total      38      38      11      11      11       0
   -------------------------------------------------------

  ==> Integral Setup <==

 MINTS: Wrapper to libmints.
   by Justin Turney

   Calculation information:
      Number of atoms:                   7
      Number of AO shells:              26
      Number of SO shells:              14
      Number of primitives:             58
      Number of atomic orbitals:        38
      Number of basis functions:        38

      Number of irreps:                  4
      Number of functions per irrep: [  12    8    8   10 ]

      Overlap, kinetic, potential, dipole, and quadrupole integrals
        stored in file 35.

      Computing two-electron integrals...done
      Computed 59664 non-zero two-electron integrals.
        Stored in file 33.

  ==> Iterations <==

                        Total Energy        Delta E     Density RMS

   @RHF iter   1:  -102.05307950029875   -1.57611e+01   0.00000e+00 
   @RHF iter   2:  -106.34867950816236   -4.29560e+00   1.68862e+00 DIIS
   @RHF iter   3:  -113.20743858074552   -6.85876e+00   1.67534e+00 DIIS
   @RHF iter   4:  -115.51603074004460   -2.30859e+00   6.27682e-02 DIIS
   @RHF iter   5:  -115.66234274035214   -1.46312e-01   2.16335e-02 DIIS
   @RHF iter   6:  -115.74974516411821   -8.74024e-02   1.30087e-02 DIIS
   @RHF iter   7:  -115.75346291259514   -3.71775e-03   3.73638e-03 DIIS
   @RHF iter   8:  -115.75409040319350   -6.27491e-04   1.73294e-03 DIIS
   @RHF iter   9:  -115.75416309894634   -7.26958e-05   7.97175e-04 DIIS
   @RHF iter  10:  -115.75416338489141   -2.85945e-07   3.43771e-05 DIIS
   @RHF iter  11:  -115.75416340050761   -1.56162e-08   8.42261e-06 DIIS
   @RHF iter  12:  -115.75416340088962   -3.82016e-10   1.45072e-06 DIIS
   @RHF iter  13:  -115.75416340089187   -2.24532e-12   1.23462e-07 DIIS
   @RHF iter  14:  -115.75416340089190   -2.84217e-14   2.49918e-08 DIIS
   @RHF iter  15:  -115.75416340089184    5.68434e-14   2.22906e-09 DIIS
   @RHF iter  16:  -115.75416340089187   -2.84217e-14   5.92378e-10 DIIS

  ==> Post-Iterations <==

	Orbital Energies (a.u.)
	-----------------------

	Doubly Occupied:                                                      

	   1A    -11.334579     1B3   -11.291338     2A    -11.291312  
	   3A     -1.017664     2B3    -0.928494     4A     -0.705846  
	   1B2    -0.608293     1B1    -0.608293     3B3    -0.575901  
	   2B2    -0.353118     2B1    -0.353118  

	Virtual:                                                              

	   3B1     0.114885     3B2     0.114885     5A      0.249357  
	   4B3     0.256378     6A      0.283193     5B3     0.306039  
	   4B2     0.440209     4B1     0.440209     7A      0.463978  
	   5B2     0.473006     5B1     0.473006     6B2     0.559603  
	   6B1     0.559603     6B3     0.575455     7B1     0.632769  
	   7B2     0.632769     8A      0.726673     7B3     0.913188  
	   9A      1.098256     8B3     1.138693    10A      1.295260  
	   9B3     1.445881     8B1     1.493350     8B2     1.493350  
	  11A     23.664839    12A     23.936158    10B3    23.939858  

	Final Occupation by Irrep:
	          A    B1    B2    B3 
	DOCC [     4,    2,    2,    3 ]

  Energy converged.

  @RHF Final Energy:  -115.75416340089187

   => Energetics <=

    Nuclear Repulsion Energy =         53.3069280432140289
    One-Electron Energy =            -259.9862712763215313
    Two-Electron Energy =              90.9251798322156617
    DFT Functional Energy =             0.0000000000000000
    Empirical Dispersion Energy =       0.0000000000000000
    Total Energy =                   -115.7541634008918265

  ==> Properties <==

  Nuclear Dipole Moment: (a.u.)
     X:    -0.0000      Y:     0.0000      Z:     0.0000

  Electronic Dipole Moment: (a.u.)
     X:     0.0000      Y:     0.0000      Z:     0.0000

  Dipole Moment: (a.u.)
     X:    -0.0000      Y:     0.0000      Z:     0.0000     Total:     0.0000

  Dipole Moment: (Debye)
     X:    -0.0000      Y:     0.0000      Z:     0.0000     Total:     0.0000


  Saving occupied orbitals to File 180.

*** tstop() called on lawn-143-215-103-161.lawn.gatech.edu at Fri Apr 27 13:58:12 2012
Module time:
	user time   =       0.23 seconds =       0.00 minutes
	system time =       0.01 seconds =       0.00 minutes
	total time  =          0 seconds =       0.00 minutes
Total time:
	user time   =       0.23 seconds =       0.00 minutes
	system time =       0.01 seconds =       0.00 minutes
	total time  =          0 seconds =       0.00 minutes

*** tstart() called on lawn-143-215-103-161.lawn.gatech.edu
*** at Fri Apr 27 13:58:12 2012

 DERIV: Derivative code.
   by Justin Turney

  Cartesian Displacement SALCs
  By SALC:
  Number of SALCs: 4, nirreps: 1
  Project out translations: False
  Project out rotations: False
	irrep = 0, ncomponent = 4
		0: atom 0, direction x, coef 0.500000
		1: atom 1, direction x, coef 0.500000
		2: atom 5, direction x, coef -0.500000
		3: atom 6, direction x, coef -0.500000
	irrep = 0, ncomponent = 4
		0: atom 0, direction y, coef 0.500000
		1: atom 1, direction y, coef -0.500000
		2: atom 5, direction y, coef -0.500000
		3: atom 6, direction y, coef 0.500000
	irrep = 0, ncomponent = 4
		0: atom 0, direction z, coef 0.500000
		1: atom 1, direction z, coef -0.500000
		2: atom 5, direction z, coef 0.500000
		3: atom 6, direction z, coef -0.500000
	irrep = 0, ncomponent = 2
		0: atom 2, direction x, coef 0.707107
		1: atom 4, direction x, coef -0.707107

  By Atomic Center:
  Number of atomic centers: 7
   Atomic Center 0:
	x component, size = 1
		0: salc 0, irrep 0, coef 0.500000
	y component, size = 1
		0: salc 1, irrep 0, coef 0.500000
	z component, size = 1
		0: salc 2, irrep 0, coef 0.500000
   Atomic Center 1:
	x component, size = 1
		0: salc 0, irrep 0, coef 0.500000
	y component, size = 1
		0: salc 1, irrep 0, coef -0.500000
	z component, size = 1
		0: salc 2, irrep 0, coef -0.500000
   Atomic Center 2:
	x component, size = 1
		0: salc 3, irrep 0, coef 0.707107
	y component, size = 0
	z component, size = 0
   Atomic Center 3:
	x component, size = 0
	y component, size = 0
	z component, size = 0
   Atomic Center 4:
	x component, size = 1
		0: salc 3, irrep 0, coef -0.707107
	y component, size = 0
	z component, size = 0
   Atomic Center 5:
	x component, size = 1
		0: salc 0, irrep 0, coef -0.500000
	y component, size = 1
		0: salc 1, irrep 0, coef -0.500000
	z component, size = 1
		0: salc 2, irrep 0, coef 0.500000
   Atomic Center 6:
	x component, size = 1
		0: salc 0, irrep 0, coef -0.500000
	y component, size = 1
		0: salc 1, irrep 0, coef 0.500000
	z component, size = 1
		0: salc 2, irrep 0, coef -0.500000

    Molecular point group: d2

    Geometry (in Bohr), charge = 0, multiplicity = 1:

       Center              X                  Y                   Z       
    ------------   -----------------  -----------------  -----------------
           H         -3.779452265771    -1.336238163149     1.336238163149
           H         -3.779452265771     1.336238163149    -1.336238163149
           C         -2.834589199328    -0.000000000000     0.000000000000
           C          0.000000000000    -0.000000000000     0.000000000000
           C          2.834589199328     0.000000000000     0.000000000000
           H          3.779452265771     1.336238163149     1.336238163149
           H          3.779452265771    -1.336238163149    -1.336238163149


  -Nuclear Repulsion Energy 1st Derivatives:
     Atom            X                  Y                   Z
    ------   -----------------  -----------------  -----------------
       1        1.052935656071     1.035691242428    -1.035691242428
       2        1.052935656071    -1.035691242428     1.035691242428
       3        4.642190575319     0.000000000000     0.000000000000
       4        0.000000000000     0.000000000000     0.000000000000
       5       -4.642190575319     0.000000000000     0.000000000000
       6       -1.052935656071    -1.035691242428    -1.035691242428
       7       -1.052935656071     1.035691242428     1.035691242428


  -One-electron contribution to gradient:
     Atom            X                  Y                   Z
    ------   -----------------  -----------------  -----------------
       1       -2.470186223582    -2.910842112735     2.910842112735
       2       -2.470186223582     2.910842112735    -2.910842112735
       3      -11.491566788248     0.000000000000     0.000000000000
       4        0.000000000000     0.000000000000     0.000000000000
       5       11.491566788248     0.000000000000     0.000000000000
       6        2.470186223582     2.910842112735     2.910842112735
       7        2.470186223582    -2.910842112735    -2.910842112735


  -Lagrangian contribution to gradient:
     Atom            X                  Y                   Z
    ------   -----------------  -----------------  -----------------
       1        0.087464099176     0.141919754013    -0.141919754013
       2        0.087464099176    -0.141919754013     0.141919754013
       3        0.132104311686     0.000000000000     0.000000000000
       4        0.000000000000     0.000000000000     0.000000000000
       5       -0.132104311686     0.000000000000     0.000000000000
       6       -0.087464099176    -0.141919754013    -0.141919754013
       7       -0.087464099176     0.141919754013     0.141919754013


  -Two-electron contribution to gradient:
     Atom            X                  Y                   Z
    ------   -----------------  -----------------  -----------------
       1        1.320298556844     1.710876818591    -1.710876818591
       2        1.320298556844    -1.710876818591     1.710876818591
       3        6.577221638887     0.000000000000     0.000000000000
       4        0.000000000000     0.000000000000     0.000000000000
       5       -6.577221638887     0.000000000000     0.000000000000
       6       -1.320298556844    -1.710876818591    -1.710876818591
       7       -1.320298556844     1.710876818591     1.710876818591


  -Total gradient:
     Atom            X                  Y                   Z
    ------   -----------------  -----------------  -----------------
       1       -0.009487911491    -0.022354297704     0.022354297704
       2       -0.009487911491     0.022354297704    -0.022354297704
       3       -0.140050262356     0.000000000000     0.000000000000
       4        0.000000000000     0.000000000000     0.000000000000
       5        0.140050262356     0.000000000000     0.000000000000
       6        0.009487911491     0.022354297704     0.022354297704
       7        0.009487911491    -0.022354297704    -0.022354297704


*** tstop() called on lawn-143-215-103-161.lawn.gatech.edu at Fri Apr 27 13:58:13 2012
Module time:
	user time   =       0.73 seconds =       0.01 minutes
	system time =       0.01 seconds =       0.00 minutes
	total time  =          1 seconds =       0.02 minutes
Total time:
	user time   =       0.96 seconds =       0.02 minutes
	system time =       0.02 seconds =       0.00 minutes
	total time  =          1 seconds =       0.02 minutes

			----------------------------------
			 OPTKING: for geometry optimizations  
			  - R.A. King,  Bethel University   
			------------------------------------

	Internal coordinates to be generated automatically.
	Detected frag with atoms:  1 2 3 4 5 6 7
	---Fragment 1 Bond Connectivity---
	 1 : 3
	 2 : 3
	 3 : 1 2 4
	 4 : 3 5
	 5 : 4 6 7
	 6 : 5
	 7 : 5

	---Fragment 1 Geometry and Gradient---
	 H          -3.7794522658       -1.3362381631        1.3362381631
	 H          -3.7794522658        1.3362381631       -1.3362381631
	 C          -2.8345891993       -0.0000000000        0.0000000000
	 C           0.0000000000       -0.0000000000        0.0000000000
	 C           2.8345891993        0.0000000000        0.0000000000
	 H           3.7794522658        1.3362381631        1.3362381631
	 H           3.7794522658       -1.3362381631       -1.3362381631
	            -0.0094879115       -0.0223542977        0.0223542977
	            -0.0094879115        0.0223542977       -0.0223542977
	            -0.1400502624        0.0000000000        0.0000000000
	             0.0000000000        0.0000000000        0.0000000000
	             0.1400502624        0.0000000000        0.0000000000
	             0.0094879115        0.0223542977        0.0223542977
	             0.0094879115       -0.0223542977       -0.0223542977

	Previous optimization step data not found.  Starting new optimization.

	---Fragment 1 Intrafragment Coordinates---
	 - Coordinate -           - BOHR/RAD -       - ANG/DEG -
	 R(1,3)           =         2.112778	       1.118034
	 R(2,3)           =         2.112778	       1.118034
	 R(3,4)           =         2.834589	       1.500000
	 R(4,5)           =         2.834589	       1.500000
	 R(5,6)           =         2.112778	       1.118034
	 R(5,7)           =         2.112778	       1.118034
	 B(1,3,2)         =         2.214297	     126.869898
	 B(1,3,4)         =         2.034444	     116.565051
	 B(2,3,4)         =         2.034444	     116.565051
	 B(3,4,5)         =         3.141593	     180.000000
	 L(3,4,5)         =         3.141593	     180.000000
	 B(4,5,6)         =         2.034444	     116.565051
	 B(4,5,7)         =         2.034444	     116.565051
	 B(6,5,7)         =         2.214297	     126.869898
	 D(1,3,5,6)       =        -1.570796	     -90.000000
	 D(1,3,5,7)       =         1.570796	      90.000000
	 D(2,3,5,6)       =         1.570796	      90.000000
	 D(2,3,5,7)       =        -1.570796	     -90.000000

	Current energy   :      -115.7541634009

	Generating empirical Hessian (Schlegel '84) for each fragment.
	Going to follow RFO solution 1.
	Projected energy change by RFO approximation:        -0.0616879711

	Back-transformation to cartesian coordinates...
	Successfully converged to displaced geometry.

	---Internal Coordinate Step in ANG or DEG, aJ/ANG or AJ/DEG ---
	 ----------------------------------------------------------------------
	 Coordinate             Previous        Force       Change         New 
	 ----------             --------       ------       ------       ------
	 R(1,3)          =      1.118034    -0.267918    -0.039020     1.079014
	 R(2,3)          =      1.118034    -0.267918    -0.039020     1.079014
	 R(3,4)          =      1.500000    -1.310172    -0.188199     1.311801
	 R(4,5)          =      1.500000    -1.310172    -0.188199     1.311801
	 R(5,6)          =      1.118034    -0.267918    -0.039020     1.079014
	 R(5,7)          =      1.118034    -0.267918    -0.039020     1.079014
	 B(1,3,2)        =    126.869898    -0.000606    -1.609582   125.260315
	 B(1,3,4)        =    116.565051     0.000303     0.804791   117.369842
	 B(2,3,4)        =    116.565051     0.000303     0.804791   117.369842
	 B(3,4,5)        =    180.000000     0.000000     0.000000   180.000000
	 L(3,4,5)        =    180.000000    -0.000000     0.000000   180.000000
	 B(4,5,6)        =    116.565051     0.000303     0.804791   117.369842
	 B(4,5,7)        =    116.565051     0.000303     0.804791   117.369842
	 B(6,5,7)        =    126.869898    -0.000606    -1.609582   125.260315
	 D(1,3,5,6)      =    -90.000000    -0.000000    -0.000000   -90.000000
	 D(1,3,5,7)      =     90.000000    -0.000000    -0.000000    90.000000
	 D(2,3,5,6)      =     90.000000    -0.000000    -0.000000    90.000000
	 D(2,3,5,7)      =    -90.000000    -0.000000    -0.000000   -90.000000
	 ----------------------------------------------------------------------

  ==> Convergence Check <==

  Measures of convergence in internal coordinates in au.
  Criteria marked as inactive (o), active & met (*), and active & unmet ( ).
  --------------------------------------------------------------------------------------------- ~
   Step     Total Energy     Delta E     MAX Force     RMS Force      MAX Disp      RMS Disp    ~
  --------------------------------------------------------------------------------------------- ~
    Convergence Criteria    1.00e-06 *    3.00e-04 *             o    1.20e-03 *             o  ~
  --------------------------------------------------------------------------------------------- ~
      1    -115.75416340   -1.16e+02      1.59e-01      5.53e-02 o    3.56e-01      1.24e-01 o  ~
  ---------------------------------------------------------------------------------------------

	Writing optimization data to binary file.
	Structure for next step:
	Cartesian Geometry (au)
	    H    -3.4163579025  -1.2804186489   1.2804186489
	    H    -3.4163579025   1.2804186489  -1.2804186489
	    C    -2.4789447637  -0.0000000000   0.0000000000
	    C     0.0000000000   0.0000000000   0.0000000000
	    C     2.4789447637   0.0000000000   0.0000000000
	    H     3.4163579025   1.2804186489   1.2804186489
	    H     3.4163579025  -1.2804186489  -1.2804186489
			--------------------------
			 OPTKING Finished Execution 
			--------------------------

*** tstart() called on lawn-143-215-103-161.lawn.gatech.edu
*** at Fri Apr 27 13:58:13 2012

	There are an even number of electrons - assuming singlet.
	Specify the multiplicity with the MULTP option in the
	input if this is incorrect


         ---------------------------------------------------------
                                   SCF
            by Justin Turney, Rob Parrish, and Andy Simmonett
                              RHF Reference
                        1 Threads,    250 MiB Core
         ---------------------------------------------------------

  ==> Geometry <==

    Molecular point group: d2

    Geometry (in Angstrom), charge = 0, multiplicity = 1:

       Center              X                  Y                   Z       
    ------------   -----------------  -----------------  -----------------
           H         -1.807858738374    -0.677568366431     0.677568366431
           H         -1.807858738374     0.677568366431    -0.677568366431
           C         -1.311801070305    -0.000000000000     0.000000000000
           C          0.000000000000     0.000000000000     0.000000000000
           C          1.311801070305     0.000000000000     0.000000000000
           H          1.807858738374     0.677568366431     0.677568366431
           H          1.807858738374    -0.677568366431    -0.677568366431

  Running in d2 symmetry.

  Nuclear repulsion =   59.275072002419144

  Charge       = 0
  Multiplicity = 1
  Electrons    = 22
  Nalpha       = 11
  Nbeta        = 11

  ==> Algorithm <==

  SCF Algorithm Type is PK.
  DIIS enabled.
  MOM disabled.
  Fractional occupation disabled.
  Guess Type is CORE.
  Energy threshold   = 1.00e-10
  Density threshold  = 1.00e-10
  Integral threshold = 0.00e+00

  ==> Primary Basis <==

  Basis Set: DZ
    Number of shells: 26
    Number of basis function: 38
    Number of Cartesian functions: 38
    Spherical Harmonics?: true
    Max angular momentum: 1

  ==> Pre-Iterations <==

  Minimum eigenvalue in the overlap matrix is 3.9651540359E-03.
  Using Symmetric Orthogonalization.
  SCF Guess: Core (One-Electron) Hamiltonian.

  Initial RHF energy:   -86.62758678040018

   -------------------------------------------------------
    Irrep   Nso     Nmo     Nalpha   Nbeta   Ndocc  Nsocc
   -------------------------------------------------------
     A         12      12       4       4       4       0
     B1         8       8       2       2       2       0
     B2         8       8       2       2       2       0
     B3        10      10       3       3       3       0
   -------------------------------------------------------
    Total      38      38      11      11      11       0
   -------------------------------------------------------

  ==> Integral Setup <==

 MINTS: Wrapper to libmints.
   by Justin Turney

   Calculation information:
      Number of atoms:                   7
      Number of AO shells:              26
      Number of SO shells:              14
      Number of primitives:             58
      Number of atomic orbitals:        38
      Number of basis functions:        38

      Number of irreps:                  4
      Number of functions per irrep: [  12    8    8   10 ]

      Overlap, kinetic, potential, dipole, and quadrupole integrals
        stored in file 35.

      Computing two-electron integrals...done
      Computed 59671 non-zero two-electron integrals.
        Stored in file 33.

  ==> Iterations <==

                        Total Energy        Delta E     Density RMS

   @RHF iter   1:  -100.67246871088409   -1.40449e+01   0.00000e+00 
   @RHF iter   2:  -104.63739071580946   -3.96492e+00   2.15130e+00 DIIS
   @RHF iter   3:  -113.95330462845263   -9.31591e+00   2.16286e+00 DIIS
   @RHF iter   4:  -115.61455081057207   -1.66125e+00   5.61060e-02 DIIS
   @RHF iter   5:  -115.78611045326883   -1.71560e-01   2.13310e-02 DIIS
   @RHF iter   6:  -115.82554205444961   -3.94316e-02   1.05529e-02 DIIS
   @RHF iter   7:  -115.82683405068482   -1.29200e-03   2.27899e-03 DIIS
   @RHF iter   8:  -115.82707448986588   -2.40439e-04   1.34475e-03 DIIS
   @RHF iter   9:  -115.82707994874806   -5.45888e-06   2.45407e-04 DIIS
   @RHF iter  10:  -115.82707999551278   -4.67647e-08   1.51970e-05 DIIS
   @RHF iter  11:  -115.82707999800908   -2.49631e-09   3.65434e-06 DIIS
   @RHF iter  12:  -115.82707999806271   -5.36318e-11   5.05513e-07 DIIS
   @RHF iter  13:  -115.82707999806311   -3.97904e-13   5.95449e-08 DIIS
   @RHF iter  14:  -115.82707999806311    0.00000e+00   7.16000e-09 DIIS
   @RHF iter  15:  -115.82707999806311    0.00000e+00   1.32091e-09 DIIS
   @RHF iter  16:  -115.82707999806311    0.00000e+00   2.33756e-10 DIIS

  ==> Post-Iterations <==

	Orbital Energies (a.u.)
	-----------------------

	Doubly Occupied:                                                      

	   1A    -11.282398     1B3   -11.248411     2A    -11.248334  
	   3A     -1.083936     2B3    -0.967561     4A     -0.703111  
	   1B1    -0.624338     1B2    -0.624338     3B3    -0.615290  
	   2B2    -0.377412     2B1    -0.377412  

	Virtual:                                                              

	   3B2     0.162943     3B1     0.162943     4B3     0.264850  
	   5A      0.292982     6A      0.302646     5B3     0.322269  
	   4B1     0.414845     4B2     0.414845     5B1     0.502819  
	   5B2     0.502819     6B3     0.532309     7A      0.551258  
	   6B1     0.602439     6B2     0.602439     7B2     0.652180  
	   7B1     0.652180     8A      0.785097     9A      1.162830  
	   7B3     1.169553     8B3     1.297016    10A      1.348205  
	   9B3     1.445866     8B1     1.571177     8B2     1.571177  
	  11A     23.674686    10B3    24.033739    12A     24.104231  

	Final Occupation by Irrep:
	          A    B1    B2    B3 
	DOCC [     4,    2,    2,    3 ]

  Energy converged.

  @RHF Final Energy:  -115.82707999806311

   => Energetics <=

    Nuclear Repulsion Energy =         59.2750720024191438
    One-Electron Energy =            -271.8992239976897736
    Two-Electron Energy =              96.7970719972075244
    DFT Functional Energy =             0.0000000000000000
    Empirical Dispersion Energy =       0.0000000000000000
    Total Energy =                   -115.8270799980631125

  ==> Properties <==

  Nuclear Dipole Moment: (a.u.)
     X:    -0.0000      Y:     0.0000      Z:     0.0000

  Electronic Dipole Moment: (a.u.)
     X:     0.0000      Y:     0.0000      Z:     0.0000

  Dipole Moment: (a.u.)
     X:    -0.0000      Y:     0.0000      Z:     0.0000     Total:     0.0000

  Dipole Moment: (Debye)
     X:    -0.0000      Y:     0.0000      Z:     0.0000     Total:     0.0000


  Saving occupied orbitals to File 180.

*** tstop() called on lawn-143-215-103-161.lawn.gatech.edu at Fri Apr 27 13:58:13 2012
Module time:
	user time   =       0.23 seconds =       0.00 minutes
	system time =       0.01 seconds =       0.00 minutes
	total time  =          0 seconds =       0.00 minutes
Total time:
	user time   =       1.19 seconds =       0.02 minutes
	system time =       0.03 seconds =       0.00 minutes
	total time  =          1 seconds =       0.02 minutes

*** tstart() called on lawn-143-215-103-161.lawn.gatech.edu
*** at Fri Apr 27 13:58:13 2012

 DERIV: Derivative code.
   by Justin Turney

  Cartesian Displacement SALCs
  By SALC:
  Number of SALCs: 4, nirreps: 1
  Project out translations: False
  Project out rotations: False
	irrep = 0, ncomponent = 4
		0: atom 0, direction x, coef 0.500000
		1: atom 1, direction x, coef 0.500000
		2: atom 5, direction x, coef -0.500000
		3: atom 6, direction x, coef -0.500000
	irrep = 0, ncomponent = 4
		0: atom 0, direction y, coef 0.500000
		1: atom 1, direction y, coef -0.500000
		2: atom 5, direction y, coef -0.500000
		3: atom 6, direction y, coef 0.500000
	irrep = 0, ncomponent = 4
		0: atom 0, direction z, coef 0.500000
		1: atom 1, direction z, coef -0.500000
		2: atom 5, direction z, coef 0.500000
		3: atom 6, direction z, coef -0.500000
	irrep = 0, ncomponent = 2
		0: atom 2, direction x, coef 0.707107
		1: atom 4, direction x, coef -0.707107

  By Atomic Center:
  Number of atomic centers: 7
   Atomic Center 0:
	x component, size = 1
		0: salc 0, irrep 0, coef 0.500000
	y component, size = 1
		0: salc 1, irrep 0, coef 0.500000
	z component, size = 1
		0: salc 2, irrep 0, coef 0.500000
   Atomic Center 1:
	x component, size = 1
		0: salc 0, irrep 0, coef 0.500000
	y component, size = 1
		0: salc 1, irrep 0, coef -0.500000
	z component, size = 1
		0: salc 2, irrep 0, coef -0.500000
   Atomic Center 2:
	x component, size = 1
		0: salc 3, irrep 0, coef 0.707107
	y component, size = 0
	z component, size = 0
   Atomic Center 3:
	x component, size = 0
	y component, size = 0
	z component, size = 0
   Atomic Center 4:
	x component, size = 1
		0: salc 3, irrep 0, coef -0.707107
	y component, size = 0
	z component, size = 0
   Atomic Center 5:
	x component, size = 1
		0: salc 0, irrep 0, coef -0.500000
	y component, size = 1
		0: salc 1, irrep 0, coef -0.500000
	z component, size = 1
		0: salc 2, irrep 0, coef 0.500000
   Atomic Center 6:
	x component, size = 1
		0: salc 0, irrep 0, coef -0.500000
	y component, size = 1
		0: salc 1, irrep 0, coef 0.500000
	z component, size = 1
		0: salc 2, irrep 0, coef -0.500000

    Molecular point group: d2

    Geometry (in Bohr), charge = 0, multiplicity = 1:

       Center              X                  Y                   Z       
    ------------   -----------------  -----------------  -----------------
           H         -3.416357902471    -1.280418648861     1.280418648861
           H         -3.416357902471     1.280418648861    -1.280418648861
           C         -2.478944763702    -0.000000000000     0.000000000000
           C          0.000000000000     0.000000000000     0.000000000000
           C          2.478944763702     0.000000000000     0.000000000000
           H          3.416357902471     1.280418648861     1.280418648861
           H          3.416357902471    -1.280418648861    -1.280418648861


  -Nuclear Repulsion Energy 1st Derivatives:
     Atom            X                  Y                   Z
    ------   -----------------  -----------------  -----------------
       1        1.204015925865     1.132359397451    -1.132359397451
       2        1.204015925865    -1.132359397451     1.132359397451
       3        6.297542900069     0.000000000000     0.000000000000
       4        0.000000000000     0.000000000000     0.000000000000
       5       -6.297542900069     0.000000000000     0.000000000000
       6       -1.204015925865    -1.132359397451    -1.132359397451
       7       -1.204015925865     1.132359397451     1.132359397451


  -One-electron contribution to gradient:
     Atom            X                  Y                   Z
    ------   -----------------  -----------------  -----------------
       1       -2.696069268218    -3.104157172273     3.104157172273
       2       -2.696069268218     3.104157172273    -3.104157172273
       3      -14.431754691351     0.000000000000     0.000000000000
       4        0.000000000000     0.000000000000     0.000000000000
       5       14.431754691351     0.000000000000     0.000000000000
       6        2.696069268218     3.104157172273     3.104157172273
       7        2.696069268218    -3.104157172273    -3.104157172273


  -Lagrangian contribution to gradient:
     Atom            X                  Y                   Z
    ------   -----------------  -----------------  -----------------
       1        0.087172696820     0.143576110119    -0.143576110119
       2        0.087172696820    -0.143576110119     0.143576110119
       3        0.191764015124     0.000000000000     0.000000000000
       4        0.000000000000     0.000000000000     0.000000000000
       5       -0.191764015124     0.000000000000     0.000000000000
       6       -0.087172696820    -0.143576110119    -0.143576110119
       7       -0.087172696820     0.143576110119     0.143576110119


  -Two-electron contribution to gradient:
     Atom            X                  Y                   Z
    ------   -----------------  -----------------  -----------------
       1        1.412972548805     1.821735887309    -1.821735887309
       2        1.412972548805    -1.821735887309     1.821735887309
       3        7.928906429822     0.000000000000     0.000000000000
       4        0.000000000000     0.000000000000     0.000000000000
       5       -7.928906429822     0.000000000000     0.000000000000
       6       -1.412972548805    -1.821735887309    -1.821735887309
       7       -1.412972548805     1.821735887309     1.821735887309


  -Total gradient:
     Atom            X                  Y                   Z
    ------   -----------------  -----------------  -----------------
       1        0.008091903272    -0.006485777394     0.006485777394
       2        0.008091903272     0.006485777394    -0.006485777394
       3       -0.013541346336     0.000000000000     0.000000000000
       4        0.000000000000     0.000000000000     0.000000000000
       5        0.013541346336     0.000000000000     0.000000000000
       6       -0.008091903272     0.006485777394     0.006485777394
       7       -0.008091903272    -0.006485777394    -0.006485777394


*** tstop() called on lawn-143-215-103-161.lawn.gatech.edu at Fri Apr 27 13:58:14 2012
Module time:
	user time   =       0.74 seconds =       0.01 minutes
	system time =       0.01 seconds =       0.00 minutes
	total time  =          1 seconds =       0.02 minutes
Total time:
	user time   =       1.93 seconds =       0.03 minutes
	system time =       0.04 seconds =       0.00 minutes
	total time  =          2 seconds =       0.03 minutes

			----------------------------------
			 OPTKING: for geometry optimizations  
			  - R.A. King,  Bethel University   
			------------------------------------

	Previous internal coordinate definitions found.
	---Fragment 1 Geometry and Gradient---
	 H          -3.4163579025       -1.2804186489        1.2804186489
	 H          -3.4163579025        1.2804186489       -1.2804186489
	 C          -2.4789447637       -0.0000000000        0.0000000000
	 C           0.0000000000        0.0000000000        0.0000000000
	 C           2.4789447637        0.0000000000        0.0000000000
	 H           3.4163579025        1.2804186489        1.2804186489
	 H           3.4163579025       -1.2804186489       -1.2804186489
	             0.0080919033       -0.0064857774        0.0064857774
	             0.0080919033        0.0064857774       -0.0064857774
	            -0.0135413463        0.0000000000        0.0000000000
	             0.0000000000        0.0000000000        0.0000000000
	             0.0135413463        0.0000000000        0.0000000000
	            -0.0080919033        0.0064857774        0.0064857774
	            -0.0080919033       -0.0064857774       -0.0064857774

	---Fragment 1 Intrafragment Coordinates---
	 - Coordinate -           - BOHR/RAD -       - ANG/DEG -
	 R(1,3)           =         2.039041	       1.079014
	 R(2,3)           =         2.039041	       1.079014
	 R(3,4)           =         2.478945	       1.311801
	 R(4,5)           =         2.478945	       1.311801
	 R(5,6)           =         2.039041	       1.079014
	 R(5,7)           =         2.039041	       1.079014
	 B(1,3,2)         =         2.186205	     125.260315
	 B(1,3,4)         =         2.048490	     117.369842
	 B(2,3,4)         =         2.048490	     117.369842
	 B(3,4,5)         =         3.141593	     180.000000
	 L(3,4,5)         =         3.141593	     180.000000
	 B(4,5,6)         =         2.048490	     117.369842
	 B(4,5,7)         =         2.048490	     117.369842
	 B(6,5,7)         =         2.186205	     125.260315
	 D(1,3,5,6)       =        -1.570796	     -90.000000
	 D(1,3,5,7)       =         1.570796	      90.000000
	 D(2,3,5,6)       =         1.570796	      90.000000
	 D(2,3,5,7)       =        -1.570796	     -90.000000

	Current energy   :      -115.8270799981

	Energy change for the previous step:
		Projected    :        -0.0616879711
		Actual       :        -0.0729165972
	Energy ratio indicates good step: Trust radius increased to 8.000e-01.


	Performing BFGS update with previous 1 gradient(s).
	Going to follow RFO solution 1.
	Projected energy change by RFO approximation:        -0.0023533588

	Back-transformation to cartesian coordinates...
	Successfully converged to displaced geometry.

	---Internal Coordinate Step in ANG or DEG, aJ/ANG or AJ/DEG ---
	 ----------------------------------------------------------------------
	 Coordinate             Previous        Force       Change         New 
	 ----------             --------       ------       ------       ------
	 R(1,3)          =      1.079014    -0.036460    -0.008532     1.070482
	 R(2,3)          =      1.079014    -0.036460    -0.008532     1.070482
	 R(3,4)          =      1.311801     0.021770    -0.001650     1.310151
	 R(4,5)          =      1.311801     0.021770    -0.001650     1.310151
	 R(5,6)          =      1.079014    -0.036460    -0.008532     1.070482
	 R(5,7)          =      1.079014    -0.036460    -0.008532     1.070482
	 B(1,3,2)        =    125.260315    -0.001179    -5.467900   119.792416
	 B(1,3,4)        =    117.369842     0.000590     2.733950   120.103792
	 B(2,3,4)        =    117.369842     0.000590     2.733950   120.103792
	 B(3,4,5)        =    180.000000    -0.000000     0.000000   180.000000
	 L(3,4,5)        =    180.000000    -0.000000     0.000000   180.000000
	 B(4,5,6)        =    117.369842     0.000590     2.733950   120.103792
	 B(4,5,7)        =    117.369842     0.000590     2.733950   120.103792
	 B(6,5,7)        =    125.260315    -0.001179    -5.467900   119.792416
	 D(1,3,5,6)      =    -90.000000     0.000000     0.000000   -90.000000
	 D(1,3,5,7)      =     90.000000     0.000000     0.000000    90.000000
	 D(2,3,5,6)      =     90.000000     0.000000     0.000000    90.000000
	 D(2,3,5,7)      =    -90.000000     0.000000     0.000000   -90.000000
	 ----------------------------------------------------------------------

  ==> Convergence Check <==

  Measures of convergence in internal coordinates in au.
  Criteria marked as inactive (o), active & met (*), and active & unmet ( ).
  ---------------------------------------------------------------------------------------------
   Step     Total Energy     Delta E     MAX Force     RMS Force      MAX Disp      RMS Disp   
  ---------------------------------------------------------------------------------------------
    Convergence Criteria    1.00e-06 *    3.00e-04 *             o    1.20e-03 *             o
  ---------------------------------------------------------------------------------------------
      2    -115.82708000   -7.29e-02      1.55e-02      6.72e-03 o    9.54e-02      3.97e-02 o  ~
  ---------------------------------------------------------------------------------------------

	Writing optimization data to binary file.
	Structure for next step:
	Cartesian Geometry (au)
	    H    -3.4904574908  -1.2374816683   1.2374816683
	    H    -3.4904574908   1.2374816683  -1.2374816683
	    C    -2.4758264921  -0.0000000000  -0.0000000000
	    C    -0.0000000000   0.0000000000   0.0000000000
	    C     2.4758264921   0.0000000000   0.0000000000
	    H     3.4904574908   1.2374816683   1.2374816683
	    H     3.4904574908  -1.2374816683  -1.2374816683
			--------------------------
			 OPTKING Finished Execution 
			--------------------------

*** tstart() called on lawn-143-215-103-161.lawn.gatech.edu
*** at Fri Apr 27 13:58:14 2012

	There are an even number of electrons - assuming singlet.
	Specify the multiplicity with the MULTP option in the
	input if this is incorrect


         ---------------------------------------------------------
                                   SCF
            by Justin Turney, Rob Parrish, and Andy Simmonett
                              RHF Reference
                        1 Threads,    250 MiB Core
         ---------------------------------------------------------

  ==> Geometry <==

    Molecular point group: d2

    Geometry (in Angstrom), charge = 0, multiplicity = 1:

       Center              X                  Y                   Z       
    ------------   -----------------  -----------------  -----------------
           H         -1.847070551688    -0.654847094921     0.654847094921
           H         -1.847070551688     0.654847094921    -0.654847094921
           C         -1.310150952048    -0.000000000000     0.000000000000
           C          0.000000000000     0.000000000000     0.000000000000
           C          1.310150952048     0.000000000000     0.000000000000
           H          1.847070551688     0.654847094921     0.654847094921
           H          1.847070551688    -0.654847094921    -0.654847094921

  Running in d2 symmetry.

  Nuclear repulsion =   59.333556476294106

  Charge       = 0
  Multiplicity = 1
  Electrons    = 22
  Nalpha       = 11
  Nbeta        = 11

  ==> Algorithm <==

  SCF Algorithm Type is PK.
  DIIS enabled.
  MOM disabled.
  Fractional occupation disabled.
  Guess Type is CORE.
  Energy threshold   = 1.00e-10
  Density threshold  = 1.00e-10
  Integral threshold = 0.00e+00

  ==> Primary Basis <==

  Basis Set: DZ
    Number of shells: 26
    Number of basis function: 38
    Number of Cartesian functions: 38
    Spherical Harmonics?: true
    Max angular momentum: 1

  ==> Pre-Iterations <==

  Minimum eigenvalue in the overlap matrix is 3.9725067837E-03.
  Using Symmetric Orthogonalization.
  SCF Guess: Core (One-Electron) Hamiltonian.

  Initial RHF energy:   -86.56377731548623

   -------------------------------------------------------
    Irrep   Nso     Nmo     Nalpha   Nbeta   Ndocc  Nsocc
   -------------------------------------------------------
     A         12      12       4       4       4       0
     B1         8       8       2       2       2       0
     B2         8       8       2       2       2       0
     B3        10      10       3       3       3       0
   -------------------------------------------------------
    Total      38      38      11      11      11       0
   -------------------------------------------------------

  ==> Integral Setup <==

 MINTS: Wrapper to libmints.
   by Justin Turney

   Calculation information:
      Number of atoms:                   7
      Number of AO shells:              26
      Number of SO shells:              14
      Number of primitives:             58
      Number of atomic orbitals:        38
      Number of basis functions:        38

      Number of irreps:                  4
      Number of functions per irrep: [  12    8    8   10 ]

      Overlap, kinetic, potential, dipole, and quadrupole integrals
        stored in file 35.

      Computing two-electron integrals...done
      Computed 59671 non-zero two-electron integrals.
        Stored in file 33.

  ==> Iterations <==

                        Total Energy        Delta E     Density RMS

   @RHF iter   1:  -100.52207133053186   -1.39583e+01   0.00000e+00 
   @RHF iter   2:  -104.49279015903515   -3.97072e+00   2.16187e+00 DIIS
   @RHF iter   3:  -113.97421790371693   -9.48143e+00   2.17423e+00 DIIS
   @RHF iter   4:  -115.61566391005381   -1.64145e+00   5.52029e-02 DIIS
   @RHF iter   5:  -115.79068608314448   -1.75022e-01   2.12551e-02 DIIS
   @RHF iter   6:  -115.82848741364616   -3.78013e-02   1.03821e-02 DIIS
   @RHF iter   7:  -115.82974571794863   -1.25830e-03   2.23054e-03 DIIS
   @RHF iter   8:  -115.82998694327320   -2.41225e-04   1.33500e-03 DIIS
   @RHF iter   9:  -115.82999227054951   -5.32728e-06   2.44081e-04 DIIS
   @RHF iter  10:  -115.82999231613748   -4.55880e-08   1.49510e-05 DIIS
   @RHF iter  11:  -115.82999231887329   -2.73582e-09   3.93152e-06 DIIS
   @RHF iter  12:  -115.82999231892656   -5.32623e-11   5.32985e-07 DIIS
   @RHF iter  13:  -115.82999231892687   -3.12639e-13   5.86329e-08 DIIS
   @RHF iter  14:  -115.82999231892695   -8.52651e-14   6.97992e-09 DIIS
   @RHF iter  15:  -115.82999231892698   -2.84217e-14   1.27394e-09 DIIS
   @RHF iter  16:  -115.82999231892687    1.13687e-13   2.12859e-10 DIIS

  ==> Post-Iterations <==

	Orbital Energies (a.u.)
	-----------------------

	Doubly Occupied:                                                      

	   1A    -11.283720     1B3   -11.247281     2A    -11.247208  
	   3A     -1.082888     2B3    -0.967892     4A     -0.716196  
	   3B3    -0.627821     1B1    -0.618706     1B2    -0.618706  
	   2B2    -0.377593     2B1    -0.377593  

	Virtual:                                                              

	   3B1     0.160936     3B2     0.160936     4B3     0.262692  
	   5A      0.295173     6A      0.309708     5B3     0.337394  
	   4B1     0.415227     4B2     0.415227     5B1     0.499624  
	   5B2     0.499624     6B3     0.526882     7A      0.559255  
	   6B2     0.597779     6B1     0.597779     7B2     0.653719  
	   7B1     0.653719     8A      0.773082     9A      1.165369  
	   7B3     1.178194     8B3     1.299596    10A      1.381416  
	   9B3     1.471947     8B1     1.551531     8B2     1.551531  
	  11A     23.678302    10B3    24.036102    12A     24.104751  

	Final Occupation by Irrep:
	          A    B1    B2    B3 
	DOCC [     4,    2,    2,    3 ]

  Energy converged.

  @RHF Final Energy:  -115.82999231892687

   => Energetics <=

    Nuclear Repulsion Energy =         59.3335564762941061
    One-Electron Energy =            -271.9958905901381740
    Two-Electron Energy =              96.8323417949171557
    DFT Functional Energy =             0.0000000000000000
    Empirical Dispersion Energy =       0.0000000000000000
    Total Energy =                   -115.8299923189268981

  ==> Properties <==

  Nuclear Dipole Moment: (a.u.)
     X:     0.0000      Y:     0.0000      Z:     0.0000

  Electronic Dipole Moment: (a.u.)
     X:     0.0000      Y:     0.0000      Z:     0.0000

  Dipole Moment: (a.u.)
     X:     0.0000      Y:     0.0000      Z:     0.0000     Total:     0.0000

  Dipole Moment: (Debye)
     X:     0.0000      Y:     0.0000      Z:     0.0000     Total:     0.0000


  Saving occupied orbitals to File 180.

*** tstop() called on lawn-143-215-103-161.lawn.gatech.edu at Fri Apr 27 13:58:14 2012
Module time:
	user time   =       0.24 seconds =       0.00 minutes
	system time =       0.01 seconds =       0.00 minutes
	total time  =          0 seconds =       0.00 minutes
Total time:
	user time   =       2.17 seconds =       0.04 minutes
	system time =       0.05 seconds =       0.00 minutes
	total time  =          2 seconds =       0.03 minutes

*** tstart() called on lawn-143-215-103-161.lawn.gatech.edu
*** at Fri Apr 27 13:58:14 2012

 DERIV: Derivative code.
   by Justin Turney

  Cartesian Displacement SALCs
  By SALC:
  Number of SALCs: 4, nirreps: 1
  Project out translations: False
  Project out rotations: False
	irrep = 0, ncomponent = 4
		0: atom 0, direction x, coef 0.500000
		1: atom 1, direction x, coef 0.500000
		2: atom 5, direction x, coef -0.500000
		3: atom 6, direction x, coef -0.500000
	irrep = 0, ncomponent = 4
		0: atom 0, direction y, coef 0.500000
		1: atom 1, direction y, coef -0.500000
		2: atom 5, direction y, coef -0.500000
		3: atom 6, direction y, coef 0.500000
	irrep = 0, ncomponent = 4
		0: atom 0, direction z, coef 0.500000
		1: atom 1, direction z, coef -0.500000
		2: atom 5, direction z, coef 0.500000
		3: atom 6, direction z, coef -0.500000
	irrep = 0, ncomponent = 2
		0: atom 2, direction x, coef 0.707107
		1: atom 4, direction x, coef -0.707107

  By Atomic Center:
  Number of atomic centers: 7
   Atomic Center 0:
	x component, size = 1
		0: salc 0, irrep 0, coef 0.500000
	y component, size = 1
		0: salc 1, irrep 0, coef 0.500000
	z component, size = 1
		0: salc 2, irrep 0, coef 0.500000
   Atomic Center 1:
	x component, size = 1
		0: salc 0, irrep 0, coef 0.500000
	y component, size = 1
		0: salc 1, irrep 0, coef -0.500000
	z component, size = 1
		0: salc 2, irrep 0, coef -0.500000
   Atomic Center 2:
	x component, size = 1
		0: salc 3, irrep 0, coef 0.707107
	y component, size = 0
	z component, size = 0
   Atomic Center 3:
	x component, size = 0
	y component, size = 0
	z component, size = 0
   Atomic Center 4:
	x component, size = 1
		0: salc 3, irrep 0, coef -0.707107
	y component, size = 0
	z component, size = 0
   Atomic Center 5:
	x component, size = 1
		0: salc 0, irrep 0, coef -0.500000
	y component, size = 1
		0: salc 1, irrep 0, coef -0.500000
	z component, size = 1
		0: salc 2, irrep 0, coef 0.500000
   Atomic Center 6:
	x component, size = 1
		0: salc 0, irrep 0, coef -0.500000
	y component, size = 1
		0: salc 1, irrep 0, coef 0.500000
	z component, size = 1
		0: salc 2, irrep 0, coef -0.500000

    Molecular point group: d2

    Geometry (in Bohr), charge = 0, multiplicity = 1:

       Center              X                  Y                   Z       
    ------------   -----------------  -----------------  -----------------
           H         -3.490457490808    -1.237481668317     1.237481668317
           H         -3.490457490808     1.237481668317    -1.237481668317
           C         -2.475826492110    -0.000000000000     0.000000000000
           C          0.000000000000     0.000000000000     0.000000000000
           C          2.475826492110     0.000000000000     0.000000000000
           H          3.490457490808     1.237481668317     1.237481668317
           H          3.490457490808    -1.237481668317    -1.237481668317


  -Nuclear Repulsion Energy 1st Derivatives:
     Atom            X                  Y                   Z
    ------   -----------------  -----------------  -----------------
       1        1.270493203678     1.116347847580    -1.116347847580
       2        1.270493203678    -1.116347847580     1.116347847580
       3        6.168337425839     0.000000000000     0.000000000000
       4        0.000000000000     0.000000000000     0.000000000000
       5       -6.168337425839     0.000000000000     0.000000000000
       6       -1.270493203678    -1.116347847580    -1.116347847580
       7       -1.270493203678     1.116347847580     1.116347847580


  -One-electron contribution to gradient:
     Atom            X                  Y                   Z
    ------   -----------------  -----------------  -----------------
       1       -2.991710283062    -2.975322880495     2.975322880495
       2       -2.991710283062     2.975322880495    -2.975322880495
       3      -13.995094136706     0.000000000000     0.000000000000
       4        0.000000000000     0.000000000000     0.000000000000
       5       13.995094136706     0.000000000000     0.000000000000
       6        2.991710283062     2.975322880495     2.975322880495
       7        2.991710283062    -2.975322880495    -2.975322880495


  -Lagrangian contribution to gradient:
     Atom            X                  Y                   Z
    ------   -----------------  -----------------  -----------------
       1        0.103210437256     0.136597802110    -0.136597802110
       2        0.103210437256    -0.136597802110     0.136597802110
       3        0.168513764029     0.000000000000     0.000000000000
       4        0.000000000000     0.000000000000     0.000000000000
       5       -0.168513764029     0.000000000000     0.000000000000
       6       -0.103210437256    -0.136597802110    -0.136597802110
       7       -0.103210437256     0.136597802110     0.136597802110


  -Two-electron contribution to gradient:
     Atom            X                  Y                   Z
    ------   -----------------  -----------------  -----------------
       1        1.622176782035     1.722856921865    -1.722856921865
       2        1.622176782035    -1.722856921865     1.722856921865
       3        7.650599896658     0.000000000000     0.000000000000
       4        0.000000000000     0.000000000000     0.000000000000
       5       -7.650599896658     0.000000000000     0.000000000000
       6       -1.622176782035    -1.722856921865    -1.722856921865
       7       -1.622176782035     1.722856921865     1.722856921865


  -Total gradient:
     Atom            X                  Y                   Z
    ------   -----------------  -----------------  -----------------
       1        0.004170139907     0.000479691060    -0.000479691060
       2        0.004170139907    -0.000479691060     0.000479691060
       3       -0.007643050180     0.000000000000     0.000000000000
       4        0.000000000000     0.000000000000     0.000000000000
       5        0.007643050180     0.000000000000     0.000000000000
       6       -0.004170139907    -0.000479691060    -0.000479691060
       7       -0.004170139907     0.000479691060     0.000479691060


*** tstop() called on lawn-143-215-103-161.lawn.gatech.edu at Fri Apr 27 13:58:15 2012
Module time:
	user time   =       0.73 seconds =       0.01 minutes
	system time =       0.00 seconds =       0.00 minutes
	total time  =          1 seconds =       0.02 minutes
Total time:
	user time   =       2.90 seconds =       0.05 minutes
	system time =       0.05 seconds =       0.00 minutes
	total time  =          3 seconds =       0.05 minutes

			----------------------------------
			 OPTKING: for geometry optimizations  
			  - R.A. King,  Bethel University   
			------------------------------------

	Previous internal coordinate definitions found.
	---Fragment 1 Geometry and Gradient---
	 H          -3.4904574908       -1.2374816683        1.2374816683
	 H          -3.4904574908        1.2374816683       -1.2374816683
	 C          -2.4758264921       -0.0000000000        0.0000000000
	 C           0.0000000000        0.0000000000        0.0000000000
	 C           2.4758264921        0.0000000000        0.0000000000
	 H           3.4904574908        1.2374816683        1.2374816683
	 H           3.4904574908       -1.2374816683       -1.2374816683
	             0.0041701399        0.0004796911       -0.0004796911
	             0.0041701399       -0.0004796911        0.0004796911
	            -0.0076430502        0.0000000000        0.0000000000
	             0.0000000000        0.0000000000        0.0000000000
	             0.0076430502        0.0000000000        0.0000000000
	            -0.0041701399       -0.0004796911       -0.0004796911
	            -0.0041701399        0.0004796911        0.0004796911

	---Fragment 1 Intrafragment Coordinates---
	 - Coordinate -           - BOHR/RAD -       - ANG/DEG -
	 R(1,3)           =         2.022918	       1.070482
	 R(2,3)           =         2.022918	       1.070482
	 R(3,4)           =         2.475826	       1.310151
	 R(4,5)           =         2.475826	       1.310151
	 R(5,6)           =         2.022918	       1.070482
	 R(5,7)           =         2.022918	       1.070482
	 B(1,3,2)         =         2.090772	     119.792416
	 B(1,3,4)         =         2.096207	     120.103792
	 B(2,3,4)         =         2.096207	     120.103792
	 B(3,4,5)         =         3.141593	     180.000000
	 L(3,4,5)         =         3.141593	     180.000000
	 B(4,5,6)         =         2.096207	     120.103792
	 B(4,5,7)         =         2.096207	     120.103792
	 B(6,5,7)         =         2.090772	     119.792416
	 D(1,3,5,6)       =        -1.570796	     -90.000000
	 D(1,3,5,7)       =         1.570796	      90.000000
	 D(2,3,5,6)       =         1.570796	      90.000000
	 D(2,3,5,7)       =        -1.570796	     -90.000000

	Current energy   :      -115.8299923189

	Energy change for the previous step:
		Projected    :        -0.0023533588
		Actual       :        -0.0029123209
	Energy ratio indicates good step: Trust radius increased to 1.000e+00.


	Performing BFGS update with previous 1 gradient(s).
	Going to follow RFO solution 1.
	Projected energy change by RFO approximation:        -0.0003140072

	Back-transformation to cartesian coordinates...
	Successfully converged to displaced geometry.

	---Internal Coordinate Step in ANG or DEG, aJ/ANG or AJ/DEG ---
	 ----------------------------------------------------------------------
	 Coordinate             Previous        Force       Change         New 
	 ----------             --------       ------       ------       ------
	 R(1,3)          =      1.070482     0.022067     0.004802     1.075285
	 R(2,3)          =      1.070482     0.022067     0.004802     1.075285
	 R(3,4)          =      1.310151     0.005744    -0.001255     1.308896
	 R(4,5)          =      1.310151     0.005744    -0.001255     1.308896
	 R(5,6)          =      1.070482     0.022067     0.004802     1.075285
	 R(5,7)          =      1.070482     0.022067     0.004802     1.075285
	 B(1,3,2)        =    119.792416    -0.000335    -2.314866   117.477550
	 B(1,3,4)        =    120.103792     0.000168     1.157433   121.261225
	 B(2,3,4)        =    120.103792     0.000168     1.157433   121.261225
	 B(3,4,5)        =    180.000000    -0.000000     0.000000   180.000000
	 L(3,4,5)        =    180.000000    -0.000000     0.000000   180.000000
	 B(4,5,6)        =    120.103792     0.000168     1.157433   121.261225
	 B(4,5,7)        =    120.103792     0.000168     1.157433   121.261225
	 B(6,5,7)        =    119.792416    -0.000335    -2.314866   117.477550
	 D(1,3,5,6)      =    -90.000000     0.000000     0.000000   -90.000000
	 D(1,3,5,7)      =     90.000000     0.000000     0.000000    90.000000
	 D(2,3,5,6)      =     90.000000     0.000000     0.000000    90.000000
	 D(2,3,5,7)      =    -90.000000     0.000000     0.000000   -90.000000
	 ----------------------------------------------------------------------

  ==> Convergence Check <==

  Measures of convergence in internal coordinates in au.
  Criteria marked as inactive (o), active & met (*), and active & unmet ( ).
  ---------------------------------------------------------------------------------------------
   Step     Total Energy     Delta E     MAX Force     RMS Force      MAX Disp      RMS Disp   
  ---------------------------------------------------------------------------------------------
    Convergence Criteria    1.00e-06 *    3.00e-04 *             o    1.20e-03 *             o
  ---------------------------------------------------------------------------------------------
      3    -115.82999232   -2.91e-03      4.41e-03      2.21e-03 o    4.04e-02      1.71e-02 o  ~
  ---------------------------------------------------------------------------------------------

	Writing optimization data to binary file.
	Structure for next step:
	Cartesian Geometry (au)
	    H    -3.5279386890  -1.2282223274   1.2282223274
	    H    -3.5279386890   1.2282223274  -1.2282223274
	    C    -2.4734545586  -0.0000000000   0.0000000000
	    C    -0.0000000000   0.0000000000   0.0000000000
	    C     2.4734545586   0.0000000000   0.0000000000
	    H     3.5279386890   1.2282223274   1.2282223274
	    H     3.5279386890  -1.2282223274  -1.2282223274
			--------------------------
			 OPTKING Finished Execution 
			--------------------------

*** tstart() called on lawn-143-215-103-161.lawn.gatech.edu
*** at Fri Apr 27 13:58:15 2012

	There are an even number of electrons - assuming singlet.
	Specify the multiplicity with the MULTP option in the
	input if this is incorrect


         ---------------------------------------------------------
                                   SCF
            by Justin Turney, Rob Parrish, and Andy Simmonett
                              RHF Reference
                        1 Threads,    250 MiB Core
         ---------------------------------------------------------

  ==> Geometry <==

    Molecular point group: d2

    Geometry (in Angstrom), charge = 0, multiplicity = 1:

       Center              X                  Y                   Z       
    ------------   -----------------  -----------------  -----------------
           H         -1.866904747529    -0.649947262761     0.649947262761
           H         -1.866904747529     0.649947262761    -0.649947262761
           C         -1.308895778906    -0.000000000000     0.000000000000
           C          0.000000000000    -0.000000000000     0.000000000000
           C          1.308895778906     0.000000000000     0.000000000000
           H          1.866904747529     0.649947262761     0.649947262761
           H          1.866904747529    -0.649947262761    -0.649947262761

  Running in d2 symmetry.

  Nuclear repulsion =   59.253146752846320

  Charge       = 0
  Multiplicity = 1
  Electrons    = 22
  Nalpha       = 11
  Nbeta        = 11

  ==> Algorithm <==

  SCF Algorithm Type is PK.
  DIIS enabled.
  MOM disabled.
  Fractional occupation disabled.
  Guess Type is CORE.
  Energy threshold   = 1.00e-10
  Density threshold  = 1.00e-10
  Integral threshold = 0.00e+00

  ==> Primary Basis <==

  Basis Set: DZ
    Number of shells: 26
    Number of basis function: 38
    Number of Cartesian functions: 38
    Spherical Harmonics?: true
    Max angular momentum: 1

  ==> Pre-Iterations <==

  Minimum eigenvalue in the overlap matrix is 3.9597647687E-03.
  Using Symmetric Orthogonalization.
  SCF Guess: Core (One-Electron) Hamiltonian.

  Initial RHF energy:   -86.59496752015575

   -------------------------------------------------------
    Irrep   Nso     Nmo     Nalpha   Nbeta   Ndocc  Nsocc
   -------------------------------------------------------
     A         12      12       4       4       4       0
     B1         8       8       2       2       2       0
     B2         8       8       2       2       2       0
     B3        10      10       3       3       3       0
   -------------------------------------------------------
    Total      38      38      11      11      11       0
   -------------------------------------------------------

  ==> Integral Setup <==

 MINTS: Wrapper to libmints.
   by Justin Turney

   Calculation information:
      Number of atoms:                   7
      Number of AO shells:              26
      Number of SO shells:              14
      Number of primitives:             58
      Number of atomic orbitals:        38
      Number of basis functions:        38

      Number of irreps:                  4
      Number of functions per irrep: [  12    8    8   10 ]

      Overlap, kinetic, potential, dipole, and quadrupole integrals
        stored in file 35.

      Computing two-electron integrals...done
      Computed 59671 non-zero two-electron integrals.
        Stored in file 33.

  ==> Iterations <==

                        Total Energy        Delta E     Density RMS

   @RHF iter   1:  -100.46344467787840   -1.38685e+01   0.00000e+00 
   @RHF iter   2:  -104.38212452983446   -3.91868e+00   2.18931e+00 DIIS
   @RHF iter   3:  -113.98221505740291   -9.60009e+00   2.20194e+00 DIIS
   @RHF iter   4:  -115.61562532283862   -1.63341e+00   5.48490e-02 DIIS
   @RHF iter   5:  -115.79213797477819   -1.76513e-01   2.12705e-02 DIIS
   @RHF iter   6:  -115.82879661488850   -3.66586e-02   1.02621e-02 DIIS
   @RHF iter   7:  -115.83003428262087   -1.23767e-03   2.20643e-03 DIIS
   @RHF iter   8:  -115.83027339845573   -2.39116e-04   1.32264e-03 DIIS
   @RHF iter   9:  -115.83027869982082   -5.30137e-06   2.43546e-04 DIIS
   @RHF iter  10:  -115.83027874609952   -4.62787e-08   1.52102e-05 DIIS
   @RHF iter  11:  -115.83027874903190   -2.93238e-09   4.15139e-06 DIIS
   @RHF iter  12:  -115.83027874908633   -5.44276e-11   5.50155e-07 DIIS
   @RHF iter  13:  -115.83027874908662   -2.84217e-13   5.96351e-08 DIIS
   @RHF iter  14:  -115.83027874908659    2.84217e-14   6.93787e-09 DIIS
   @RHF iter  15:  -115.83027874908662   -2.84217e-14   1.25766e-09 DIIS
   @RHF iter  16:  -115.83027874908662    0.00000e+00   2.08008e-10 DIIS

  ==> Post-Iterations <==

	Orbital Energies (a.u.)
	-----------------------

	Doubly Occupied:                                                      

	   1A    -11.284232     1B3   -11.248471     2A    -11.248397  
	   3A     -1.082166     2B3    -0.966629     4A     -0.719245  
	   3B3    -0.631916     1B1    -0.613695     1B2    -0.613695  
	   2B2    -0.377590     2B1    -0.377590  

	Virtual:                                                              

	   3B1     0.159650     3B2     0.159650     4B3     0.261853  
	   5A      0.294574     6A      0.311009     5B3     0.341766  
	   4B1     0.417592     4B2     0.417592     5B2     0.495106  
	   5B1     0.495106     6B3     0.523129     7A      0.562219  
	   6B2     0.595030     6B1     0.595030     7B1     0.654949  
	   7B2     0.654949     8A      0.770167     9A      1.163653  
	   7B3     1.178372     8B3     1.300399    10A      1.391389  
	   9B3     1.484165     8B1     1.532194     8B2     1.532194  
	  11A     23.677822    10B3    24.035172    12A     24.104339  

	Final Occupation by Irrep:
	          A    B1    B2    B3 
	DOCC [     4,    2,    2,    3 ]

  Energy converged.

  @RHF Final Energy:  -115.83027874908662

   => Energetics <=

    Nuclear Repulsion Energy =         59.2531467528463196
    One-Electron Energy =            -271.8396007781490198
    Two-Electron Energy =              96.7561752762161120
    DFT Functional Energy =             0.0000000000000000
    Empirical Dispersion Energy =       0.0000000000000000
    Total Energy =                   -115.8302787490866024

  ==> Properties <==

  Nuclear Dipole Moment: (a.u.)
     X:     0.0000      Y:    -0.0000      Z:     0.0000

  Electronic Dipole Moment: (a.u.)
     X:     0.0000      Y:     0.0000      Z:     0.0000

  Dipole Moment: (a.u.)
     X:     0.0000      Y:    -0.0000      Z:     0.0000     Total:     0.0000

  Dipole Moment: (Debye)
     X:     0.0000      Y:    -0.0000      Z:     0.0000     Total:     0.0000


  Saving occupied orbitals to File 180.

*** tstop() called on lawn-143-215-103-161.lawn.gatech.edu at Fri Apr 27 13:58:15 2012
Module time:
	user time   =       0.23 seconds =       0.00 minutes
	system time =       0.02 seconds =       0.00 minutes
	total time  =          0 seconds =       0.00 minutes
Total time:
	user time   =       3.14 seconds =       0.05 minutes
	system time =       0.07 seconds =       0.00 minutes
	total time  =          3 seconds =       0.05 minutes

*** tstart() called on lawn-143-215-103-161.lawn.gatech.edu
*** at Fri Apr 27 13:58:15 2012

 DERIV: Derivative code.
   by Justin Turney

  Cartesian Displacement SALCs
  By SALC:
  Number of SALCs: 4, nirreps: 1
  Project out translations: False
  Project out rotations: False
	irrep = 0, ncomponent = 4
		0: atom 0, direction x, coef 0.500000
		1: atom 1, direction x, coef 0.500000
		2: atom 5, direction x, coef -0.500000
		3: atom 6, direction x, coef -0.500000
	irrep = 0, ncomponent = 4
		0: atom 0, direction y, coef 0.500000
		1: atom 1, direction y, coef -0.500000
		2: atom 5, direction y, coef -0.500000
		3: atom 6, direction y, coef 0.500000
	irrep = 0, ncomponent = 4
		0: atom 0, direction z, coef 0.500000
		1: atom 1, direction z, coef -0.500000
		2: atom 5, direction z, coef 0.500000
		3: atom 6, direction z, coef -0.500000
	irrep = 0, ncomponent = 2
		0: atom 2, direction x, coef 0.707107
		1: atom 4, direction x, coef -0.707107

  By Atomic Center:
  Number of atomic centers: 7
   Atomic Center 0:
	x component, size = 1
		0: salc 0, irrep 0, coef 0.500000
	y component, size = 1
		0: salc 1, irrep 0, coef 0.500000
	z component, size = 1
		0: salc 2, irrep 0, coef 0.500000
   Atomic Center 1:
	x component, size = 1
		0: salc 0, irrep 0, coef 0.500000
	y component, size = 1
		0: salc 1, irrep 0, coef -0.500000
	z component, size = 1
		0: salc 2, irrep 0, coef -0.500000
   Atomic Center 2:
	x component, size = 1
		0: salc 3, irrep 0, coef 0.707107
	y component, size = 0
	z component, size = 0
   Atomic Center 3:
	x component, size = 0
	y component, size = 0
	z component, size = 0
   Atomic Center 4:
	x component, size = 1
		0: salc 3, irrep 0, coef -0.707107
	y component, size = 0
	z component, size = 0
   Atomic Center 5:
	x component, size = 1
		0: salc 0, irrep 0, coef -0.500000
	y component, size = 1
		0: salc 1, irrep 0, coef -0.500000
	z component, size = 1
		0: salc 2, irrep 0, coef 0.500000
   Atomic Center 6:
	x component, size = 1
		0: salc 0, irrep 0, coef -0.500000
	y component, size = 1
		0: salc 1, irrep 0, coef 0.500000
	z component, size = 1
		0: salc 2, irrep 0, coef -0.500000

    Molecular point group: d2

    Geometry (in Bohr), charge = 0, multiplicity = 1:

       Center              X                  Y                   Z       
    ------------   -----------------  -----------------  -----------------
           H         -3.527938689015    -1.228222327436     1.228222327437
           H         -3.527938689015     1.228222327436    -1.228222327437
           C         -2.473454558622    -0.000000000000     0.000000000000
           C          0.000000000000    -0.000000000000     0.000000000000
           C          2.473454558622     0.000000000000     0.000000000000
           H          3.527938689015     1.228222327436     1.228222327437
           H          3.527938689015    -1.228222327436    -1.228222327437


  -Nuclear Repulsion Energy 1st Derivatives:
     Atom            X                  Y                   Z
    ------   -----------------  -----------------  -----------------
       1        1.283691272630     1.094229056446    -1.094229056447
       2        1.283691272630    -1.094229056446     1.094229056447
       3        6.142493654760     0.000000000000     0.000000000000
       4        0.000000000000     0.000000000000     0.000000000000
       5       -6.142493654760     0.000000000000     0.000000000000
       6       -1.283691272630    -1.094229056446    -1.094229056447
       7       -1.283691272630     1.094229056446     1.094229056447


  -One-electron contribution to gradient:
     Atom            X                  Y                   Z
    ------   -----------------  -----------------  -----------------
       1       -3.095913643680    -2.897326416238     2.897326416240
       2       -3.095913643680     2.897326416238    -2.897326416240
       3      -13.820750184029     0.000000000000     0.000000000000
       4        0.000000000000     0.000000000000     0.000000000000
       5       13.820750184029     0.000000000000     0.000000000000
       6        3.095913643680     2.897326416238     2.897326416240
       7        3.095913643680    -2.897326416238    -2.897326416240


  -Lagrangian contribution to gradient:
     Atom            X                  Y                   Z
    ------   -----------------  -----------------  -----------------
       1        0.109350386834     0.132665225696    -0.132665225696
       2        0.109350386834    -0.132665225696     0.132665225696
       3        0.157696754526     0.000000000000     0.000000000000
       4        0.000000000000     0.000000000000     0.000000000000
       5       -0.157696754526     0.000000000000     0.000000000000
       6       -0.109350386834    -0.132665225696    -0.132665225696
       7       -0.109350386834     0.132665225696     0.132665225696


  -Two-electron contribution to gradient:
     Atom            X                  Y                   Z
    ------   -----------------  -----------------  -----------------
       1        1.702381558019     1.670101857553    -1.670101857554
       2        1.702381558019    -1.670101857553     1.670101857554
       3        7.522126156013     0.000000000000     0.000000000000
       4        0.000000000000     0.000000000000     0.000000000000
       5       -7.522126156013     0.000000000000     0.000000000000
       6       -1.702381558019    -1.670101857553    -1.670101857554
       7       -1.702381558019     1.670101857553     1.670101857554


  -Total gradient:
     Atom            X                  Y                   Z
    ------   -----------------  -----------------  -----------------
       1       -0.000490426197    -0.000330276544     0.000330276544
       2       -0.000490426197     0.000330276544    -0.000330276544
       3        0.001566381269     0.000000000000     0.000000000000
       4        0.000000000000     0.000000000000     0.000000000000
       5       -0.001566381269     0.000000000000     0.000000000000
       6        0.000490426197     0.000330276544     0.000330276544
       7        0.000490426197    -0.000330276544    -0.000330276544


*** tstop() called on lawn-143-215-103-161.lawn.gatech.edu at Fri Apr 27 13:58:16 2012
Module time:
	user time   =       0.74 seconds =       0.01 minutes
	system time =       0.00 seconds =       0.00 minutes
	total time  =          1 seconds =       0.02 minutes
Total time:
	user time   =       3.88 seconds =       0.06 minutes
	system time =       0.07 seconds =       0.00 minutes
	total time  =          4 seconds =       0.07 minutes

			----------------------------------
			 OPTKING: for geometry optimizations  
			  - R.A. King,  Bethel University   
			------------------------------------

	Previous internal coordinate definitions found.
	---Fragment 1 Geometry and Gradient---
	 H          -3.5279386890       -1.2282223274        1.2282223274
	 H          -3.5279386890        1.2282223274       -1.2282223274
	 C          -2.4734545586       -0.0000000000        0.0000000000
	 C           0.0000000000       -0.0000000000        0.0000000000
	 C           2.4734545586        0.0000000000        0.0000000000
	 H           3.5279386890        1.2282223274        1.2282223274
	 H           3.5279386890       -1.2282223274       -1.2282223274
	            -0.0004904262       -0.0003302765        0.0003302765
	            -0.0004904262        0.0003302765       -0.0003302765
	             0.0015663813        0.0000000000        0.0000000000
	             0.0000000000        0.0000000000        0.0000000000
	            -0.0015663813        0.0000000000        0.0000000000
	             0.0004904262        0.0003302765        0.0003302765
	             0.0004904262       -0.0003302765       -0.0003302765

	---Fragment 1 Intrafragment Coordinates---
	 - Coordinate -           - BOHR/RAD -       - ANG/DEG -
	 R(1,3)           =         2.031993	       1.075285
	 R(2,3)           =         2.031993	       1.075285
	 R(3,4)           =         2.473455	       1.308896
	 R(4,5)           =         2.473455	       1.308896
	 R(5,6)           =         2.031993	       1.075285
	 R(5,7)           =         2.031993	       1.075285
	 B(1,3,2)         =         2.050370	     117.477550
	 B(1,3,4)         =         2.116408	     121.261225
	 B(2,3,4)         =         2.116408	     121.261225
	 B(3,4,5)         =         3.141593	     180.000000
	 L(3,4,5)         =         3.141593	     180.000000
	 B(4,5,6)         =         2.116408	     121.261225
	 B(4,5,7)         =         2.116408	     121.261225
	 B(6,5,7)         =         2.050370	     117.477550
	 D(1,3,5,6)       =        -1.570796	     -90.000000
	 D(1,3,5,7)       =         1.570796	      90.000000
	 D(2,3,5,6)       =         1.570796	      90.000000
	 D(2,3,5,7)       =        -1.570796	     -90.000000

	Current energy   :      -115.8302787491

	Energy change for the previous step:
		Projected    :        -0.0003140072
		Actual       :        -0.0002864302

	Performing BFGS update with previous 1 gradient(s).
	Going to follow RFO solution 1.
	Projected energy change by RFO approximation:        -0.0000040150

	Back-transformation to cartesian coordinates...
	Successfully converged to displaced geometry.

	---Internal Coordinate Step in ANG or DEG, aJ/ANG or AJ/DEG ---
	 ----------------------------------------------------------------------
	 Coordinate             Previous        Force       Change         New 
	 ----------             --------       ------       ------       ------
	 R(1,3)          =      1.075285    -0.005386    -0.000936     1.074349
	 R(2,3)          =      1.075285    -0.005386    -0.000936     1.074349
	 R(3,4)          =      1.308896     0.004824     0.000786     1.309682
	 R(4,5)          =      1.308896     0.004824     0.000786     1.309682
	 R(5,6)          =      1.075285    -0.005386    -0.000936     1.074349
	 R(5,7)          =      1.075285    -0.005386    -0.000936     1.074349
	 B(1,3,2)        =    117.477550     0.000018     0.132760   117.610310
	 B(1,3,4)        =    121.261225    -0.000009    -0.066380   121.194845
	 B(2,3,4)        =    121.261225    -0.000009    -0.066380   121.194845
	 B(3,4,5)        =    180.000000     0.000000     0.000000   180.000000
	 L(3,4,5)        =    180.000000    -0.000000     0.000000   180.000000
	 B(4,5,6)        =    121.261225    -0.000009    -0.066380   121.194845
	 B(4,5,7)        =    121.261225    -0.000009    -0.066380   121.194845
	 B(6,5,7)        =    117.477550     0.000018     0.132760   117.610310
	 D(1,3,5,6)      =    -90.000000    -0.000000    -0.000000   -90.000000
	 D(1,3,5,7)      =     90.000000    -0.000000    -0.000000    90.000000
	 D(2,3,5,6)      =     90.000000    -0.000000    -0.000000    90.000000
	 D(2,3,5,7)      =    -90.000000    -0.000000    -0.000000   -90.000000
	 ----------------------------------------------------------------------

  ==> Convergence Check <==

  Measures of convergence in internal coordinates in au.
  Criteria marked as inactive (o), active & met (*), and active & unmet ( ).
  ---------------------------------------------------------------------------------------------
   Step     Total Energy     Delta E     MAX Force     RMS Force      MAX Disp      RMS Disp   
  ---------------------------------------------------------------------------------------------
    Convergence Criteria    1.00e-06 *    3.00e-04 *             o    1.20e-03 *             o
  ---------------------------------------------------------------------------------------------
      4    -115.83027875   -2.86e-04      6.54e-04      3.78e-04 o    2.32e-03      1.35e-03 o  ~
  ---------------------------------------------------------------------------------------------

	Writing optimization data to binary file.
	Structure for next step:
	Cartesian Geometry (au)
	    H    -3.5264943567  -1.2280154028   1.2280154028
	    H    -3.5264943567   1.2280154028  -1.2280154028
[...]
           C         -1.309299276026    -0.000000000000     0.000000000000
           C          0.000000000000     0.000000000000     0.000000000000
           C          1.309299276026     0.000000000000     0.000000000000
           H          1.865659211311     0.649873058213     0.649873058249
           H          1.865659211311    -0.649873058213    -0.649873058249

  Running in d2 symmetry.

  Nuclear repulsion =   59.257098185720359

  Charge       = 0
  Multiplicity = 1
  Electrons    = 22
  Nalpha       = 11
  Nbeta        = 11

  ==> Algorithm <==

  SCF Algorithm Type is PK.
  DIIS enabled.
  MOM disabled.
  Fractional occupation disabled.
  Guess Type is CORE.
  Energy threshold   = 1.00e-10
  Density threshold  = 1.00e-10
  Integral threshold = 0.00e+00

  ==> Primary Basis <==

  Basis Set: DZ
    Number of shells: 26
    Number of basis function: 38
    Number of Cartesian functions: 38
    Spherical Harmonics?: true
    Max angular momentum: 1

  ==> Pre-Iterations <==

  Minimum eigenvalue in the overlap matrix is 3.9628082495E-03.
  Using Symmetric Orthogonalization.
  SCF Guess: Core (One-Electron) Hamiltonian.

  Initial RHF energy:   -86.58765515444387

   -------------------------------------------------------
    Irrep   Nso     Nmo     Nalpha   Nbeta   Ndocc  Nsocc
   -------------------------------------------------------
     A         12      12       4       4       4       0
     B1         8       8       2       2       2       0
     B2         8       8       2       2       2       0
     B3        10      10       3       3       3       0
   -------------------------------------------------------
    Total      38      38      11      11      11       0
   -------------------------------------------------------

  ==> Integral Setup <==

 MINTS: Wrapper to libmints.
   by Justin Turney

   Calculation information:
      Number of atoms:                   7
      Number of AO shells:              26
      Number of SO shells:              14
      Number of primitives:             58
      Number of atomic orbitals:        38
      Number of basis functions:        38

      Number of irreps:                  4
      Number of functions per irrep: [  12    8    8   10 ]

      Overlap, kinetic, potential, dipole, and quadrupole integrals
        stored in file 35.

      Computing two-electron integrals...done
      Computed 59671 non-zero two-electron integrals.
        Stored in file 33.

  ==> Iterations <==

                        Total Energy        Delta E     Density RMS

   @RHF iter   1:  -100.46913825965757   -1.38815e+01   0.00000e+00 
   @RHF iter   2:  -104.39600371516022   -3.92687e+00   2.18469e+00 DIIS
   @RHF iter   3:  -113.98114287411508   -9.58514e+00   2.19725e+00 DIIS
   @RHF iter   4:  -115.61563081595878   -1.63449e+00   5.48757e-02 DIIS
   @RHF iter   5:  -115.79197101918814   -1.76340e-01   2.12627e-02 DIIS
   @RHF iter   6:  -115.82879581265209   -3.68248e-02   1.02778e-02 DIIS
   @RHF iter   7:  -115.83003713702837   -1.24132e-03   2.20978e-03 DIIS
   @RHF iter   8:  -115.83027696527242   -2.39828e-04   1.32477e-03 DIIS
   @RHF iter   9:  -115.83028228337437   -5.31810e-06   2.43883e-04 DIIS
   @RHF iter  10:  -115.83028232962502   -4.62506e-08   1.51841e-05 DIIS
   @RHF iter  11:  -115.83028233254640   -2.92138e-09   4.13448e-06 DIIS
   @RHF iter  12:  -115.83028233260055   -5.41434e-11   5.49129e-07 DIIS
   @RHF iter  13:  -115.83028233260094   -3.97904e-13   5.95123e-08 DIIS
   @RHF iter  14:  -115.83028233260094    0.00000e+00   6.94503e-09 DIIS
   @RHF iter  15:  -115.83028233260094    0.00000e+00   1.25951e-09 DIIS
   @RHF iter  16:  -115.83028233260094    0.00000e+00   2.08147e-10 DIIS

  ==> Post-Iterations <==

	Orbital Energies (a.u.)
	-----------------------

	Doubly Occupied:                                                      

	   1A    -11.284293     1B3   -11.248325     2A    -11.248251  
	   3A     -1.082134     2B3    -0.966769     4A     -0.719279  
	   3B3    -0.631719     1B1    -0.614176     1B2    -0.614176  
	   2B2    -0.377559     2B1    -0.377559  

	Virtual:                                                              

	   3B1     0.159695     3B2     0.159695     4B3     0.261880  
	   5A      0.294601     6A      0.311134     5B3     0.341646  
	   4B1     0.417310     4B2     0.417310     5B2     0.495631  
	   5B1     0.495631     6B3     0.523524     7A      0.561975  
	   6B2     0.595157     6B1     0.595157     7B1     0.654785  
	   7B2     0.654785     8A      0.769951     9A      1.163886  
	   7B3     1.178526     8B3     1.299640    10A      1.391106  
	   9B3     1.483491     8B2     1.534107     8B1     1.534107  
	  11A     23.677985    10B3    24.035219    12A     24.104136  

	Final Occupation by Irrep:
	          A    B1    B2    B3 
	DOCC [     4,    2,    2,    3 ]

  Energy converged.

  @RHF Final Energy:  -115.83028233260094

   => Energetics <=

    Nuclear Repulsion Energy =         59.2570981857203591
    One-Electron Energy =            -271.8462800135300768
    Two-Electron Energy =              96.7588994952087802
    DFT Functional Energy =             0.0000000000000000
    Empirical Dispersion Energy =       0.0000000000000000
    Total Energy =                   -115.8302823326009303

  ==> Properties <==

  Nuclear Dipole Moment: (a.u.)
     X:     0.0000      Y:     0.0000      Z:     0.0000

  Electronic Dipole Moment: (a.u.)
     X:     0.0000      Y:     0.0000      Z:     0.0000

  Dipole Moment: (a.u.)
     X:     0.0000      Y:     0.0000      Z:     0.0000     Total:     0.0000

  Dipole Moment: (Debye)
     X:     0.0000      Y:     0.0000      Z:     0.0000     Total:     0.0000


  Saving occupied orbitals to File 180.

*** tstop() called on lawn-143-215-103-161.lawn.gatech.edu at Fri Apr 27 13:58:17 2012
Module time:
	user time   =       0.23 seconds =       0.00 minutes
	system time =       0.02 seconds =       0.00 minutes
	total time  =          0 seconds =       0.00 minutes
Total time:
	user time   =       5.08 seconds =       0.08 minutes
	system time =       0.11 seconds =       0.00 minutes
	total time  =          5 seconds =       0.08 minutes

*** tstart() called on lawn-143-215-103-161.lawn.gatech.edu
*** at Fri Apr 27 13:58:17 2012

 DERIV: Derivative code.
   by Justin Turney

  Cartesian Displacement SALCs
  By SALC:
  Number of SALCs: 4, nirreps: 1
  Project out translations: False
  Project out rotations: False
	irrep = 0, ncomponent = 4
		0: atom 0, direction x, coef 0.500000
		1: atom 1, direction x, coef 0.500000
		2: atom 5, direction x, coef -0.500000
		3: atom 6, direction x, coef -0.500000
	irrep = 0, ncomponent = 4
		0: atom 0, direction y, coef 0.500000
		1: atom 1, direction y, coef -0.500000
		2: atom 5, direction y, coef -0.500000
		3: atom 6, direction y, coef 0.500000
	irrep = 0, ncomponent = 4
		0: atom 0, direction z, coef 0.500000
		1: atom 1, direction z, coef -0.500000
		2: atom 5, direction z, coef 0.500000
		3: atom 6, direction z, coef -0.500000
	irrep = 0, ncomponent = 2
		0: atom 2, direction x, coef 0.707107
		1: atom 4, direction x, coef -0.707107

  By Atomic Center:
  Number of atomic centers: 7
   Atomic Center 0:
	x component, size = 1
		0: salc 0, irrep 0, coef 0.500000
	y component, size = 1
		0: salc 1, irrep 0, coef 0.500000
	z component, size = 1
		0: salc 2, irrep 0, coef 0.500000
   Atomic Center 1:
	x component, size = 1
		0: salc 0, irrep 0, coef 0.500000
	y component, size = 1
		0: salc 1, irrep 0, coef -0.500000
	z component, size = 1
		0: salc 2, irrep 0, coef -0.500000
   Atomic Center 2:
	x component, size = 1
		0: salc 3, irrep 0, coef 0.707107
	y component, size = 0
	z component, size = 0
   Atomic Center 3:
	x component, size = 0
	y component, size = 0
	z component, size = 0
   Atomic Center 4:
	x component, size = 1
		0: salc 3, irrep 0, coef -0.707107
	y component, size = 0
	z component, size = 0
   Atomic Center 5:
	x component, size = 1
		0: salc 0, irrep 0, coef -0.500000
	y component, size = 1
		0: salc 1, irrep 0, coef -0.500000
	z component, size = 1
		0: salc 2, irrep 0, coef 0.500000
   Atomic Center 6:
	x component, size = 1
		0: salc 0, irrep 0, coef -0.500000
	y component, size = 1
		0: salc 1, irrep 0, coef 0.500000
	z component, size = 1
		0: salc 2, irrep 0, coef -0.500000

    Molecular point group: d2

    Geometry (in Bohr), charge = 0, multiplicity = 1:

       Center              X                  Y                   Z       
    ------------   -----------------  -----------------  -----------------
           H         -3.525584966674    -1.228082101164     1.228082101231
           H         -3.525584966674     1.228082101164    -1.228082101231
           C         -2.474217057674    -0.000000000000     0.000000000000
           C          0.000000000000     0.000000000000     0.000000000000
           C          2.474217057674     0.000000000000     0.000000000000
           H          3.525584966674     1.228082101164     1.228082101231
           H          3.525584966674    -1.228082101164    -1.228082101231


  -Nuclear Repulsion Energy 1st Derivatives:
     Atom            X                  Y                   Z
    ------   -----------------  -----------------  -----------------
       1        1.283912042402     1.096680038400    -1.096680038459
       2        1.283912042402    -1.096680038400     1.096680038459
       3        6.138594248052     0.000000000000     0.000000000000
       4        0.000000000000     0.000000000000     0.000000000000
       5       -6.138594248052     0.000000000000     0.000000000000
       6       -1.283912042402    -1.096680038400    -1.096680038459
       7       -1.283912042402     1.096680038400     1.096680038459


  -One-electron contribution to gradient:
     Atom            X                  Y                   Z
    ------   -----------------  -----------------  -----------------
       1       -3.090843177046    -2.903375394692     2.903375394893
       2       -3.090843177046     2.903375394692    -2.903375394893
       3      -13.825890816097     0.000000000000     0.000000000000
       4        0.000000000000     0.000000000000     0.000000000000
       5       13.825890816097     0.000000000000     0.000000000000
       6        3.090843177046     2.903375394692     2.903375394893
       7        3.090843177046    -2.903375394692    -2.903375394893


  -Lagrangian contribution to gradient:
     Atom            X                  Y                   Z
    ------   -----------------  -----------------  -----------------
       1        0.109025699385     0.132964122955    -0.132964122964
       2        0.109025699385    -0.132964122955     0.132964122964
       3        0.158374934444     0.000000000000     0.000000000000
       4        0.000000000000     0.000000000000     0.000000000000
       5       -0.158374934444     0.000000000000     0.000000000000
       6       -0.109025699385    -0.132964122955    -0.132964122964
       7       -0.109025699385     0.132964122955     0.132964122964


  -Two-electron contribution to gradient:
     Atom            X                  Y                   Z
    ------   -----------------  -----------------  -----------------
       1        1.697937261728     1.673749084137    -1.673749084267
       2        1.697937261728    -1.673749084137     1.673749084267
       3        7.528992887139     0.000000000000     0.000000000000
       4        0.000000000000     0.000000000000     0.000000000000
       5       -7.528992887139     0.000000000000     0.000000000000
       6       -1.697937261728    -1.673749084137    -1.673749084267
       7       -1.697937261728     1.673749084137     1.673749084267


  -Total gradient:
     Atom            X                  Y                   Z
    ------   -----------------  -----------------  -----------------
       1        0.000031826469     0.000017850800    -0.000017850797
       2        0.000031826469    -0.000017850800     0.000017850797
       3        0.000071253539     0.000000000000     0.000000000000
       4        0.000000000000     0.000000000000     0.000000000000
       5       -0.000071253539     0.000000000000     0.000000000000
       6       -0.000031826469    -0.000017850800    -0.000017850797
       7       -0.000031826469     0.000017850800     0.000017850797


*** tstop() called on lawn-143-215-103-161.lawn.gatech.edu at Fri Apr 27 13:58:18 2012
Module time:
	user time   =       0.73 seconds =       0.01 minutes
	system time =       0.00 seconds =       0.00 minutes
	total time  =          1 seconds =       0.02 minutes
Total time:
	user time   =       5.81 seconds =       0.10 minutes
	system time =       0.11 seconds =       0.00 minutes
	total time  =          6 seconds =       0.10 minutes

			----------------------------------
			 OPTKING: for geometry optimizations  
			  - R.A. King,  Bethel University   
			------------------------------------

	Previous internal coordinate definitions found.
	---Fragment 1 Geometry and Gradient---
	 H          -3.5255849667       -1.2280821012        1.2280821012
	 H          -3.5255849667        1.2280821012       -1.2280821012
	 C          -2.4742170577       -0.0000000000        0.0000000000
	 C           0.0000000000        0.0000000000        0.0000000000
	 C           2.4742170577        0.0000000000        0.0000000000
	 H           3.5255849667        1.2280821012        1.2280821012
	 H           3.5255849667       -1.2280821012       -1.2280821012
	             0.0000318265        0.0000178508       -0.0000178508
	             0.0000318265       -0.0000178508        0.0000178508
	             0.0000712535        0.0000000000        0.0000000000
	             0.0000000000        0.0000000000        0.0000000000
	            -0.0000712535        0.0000000000        0.0000000000
	            -0.0000318265       -0.0000178508       -0.0000178508
	            -0.0000318265        0.0000178508        0.0000178508

	---Fragment 1 Intrafragment Coordinates---
	 - Coordinate -           - BOHR/RAD -       - ANG/DEG -
	 R(1,3)           =         2.030208	       1.074340
	 R(2,3)           =         2.030208	       1.074340
	 R(3,4)           =         2.474217	       1.309299
	 R(4,5)           =         2.474217	       1.309299
	 R(5,6)           =         2.030208	       1.074340
	 R(5,7)           =         2.030208	       1.074340
	 B(1,3,2)         =         2.052893	     117.622093
	 B(1,3,4)         =         2.115146	     121.188953
	 B(2,3,4)         =         2.115146	     121.188953
	 B(3,4,5)         =         3.141593	     180.000000
	 L(3,4,5)         =         3.141593	     180.000000
	 B(4,5,6)         =         2.115146	     121.188953
	 B(4,5,7)         =         2.115146	     121.188953
	 B(6,5,7)         =         2.052893	     117.622093
	 D(1,3,5,6)       =        -1.570796	     -90.000000
	 D(1,3,5,7)       =         1.570796	      90.000000
	 D(2,3,5,6)       =         1.570796	      90.000000
	 D(2,3,5,7)       =        -1.570796	     -90.000000

	Current energy   :      -115.8302823326

	Energy change for the previous step:
		Projected    :        -0.0000003118
		Actual       :        -0.0000002073

	Performing BFGS update with previous 1 gradient(s).
	Going to follow RFO solution 1.
	Projected energy change by RFO approximation:        -0.0000000347

	Back-transformation to cartesian coordinates...
	Successfully converged to displaced geometry.

	---Internal Coordinate Step in ANG or DEG, aJ/ANG or AJ/DEG ---
	 ----------------------------------------------------------------------
	 Coordinate             Previous        Force       Change         New 
	 ----------             --------       ------       ------       ------
	 R(1,3)          =      1.074340     0.000314     0.000056     1.074396
	 R(2,3)          =      1.074340     0.000314     0.000056     1.074396
	 R(3,4)          =      1.309299     0.001111     0.000089     1.309389
	 R(4,5)          =      1.309299     0.001111     0.000089     1.309389
	 R(5,6)          =      1.074340     0.000314     0.000056     1.074396
	 R(5,7)          =      1.074340     0.000314     0.000056     1.074396
	 B(1,3,2)        =    117.622093    -0.000001    -0.007535   117.614558
	 B(1,3,4)        =    121.188953     0.000001     0.003768   121.192721
	 B(2,3,4)        =    121.188953     0.000001     0.003768   121.192721
	 B(3,4,5)        =    180.000000     0.000000     0.000000   180.000000
	 L(3,4,5)        =    180.000000    -0.000000     0.000000   180.000000
	 B(4,5,6)        =    121.188953     0.000001     0.003768   121.192721
	 B(4,5,7)        =    121.188953     0.000001     0.003768   121.192721
	 B(6,5,7)        =    117.622093    -0.000001    -0.007535   117.614558
	 D(1,3,5,6)      =    -90.000000    -0.000000    -0.000000   -90.000000
	 D(1,3,5,7)      =     90.000000    -0.000000    -0.000000    90.000000
	 D(2,3,5,6)      =     90.000000    -0.000000    -0.000000    90.000000
	 D(2,3,5,7)      =    -90.000000    -0.000000    -0.000000   -90.000000
	 ----------------------------------------------------------------------

  ==> Convergence Check <==

  Measures of convergence in internal coordinates in au.
  Criteria marked as inactive (o), active & met (*), and active & unmet ( ).
  ---------------------------------------------------------------------------------------------
   Step     Total Energy     Delta E     MAX Force     RMS Force      MAX Disp      RMS Disp   
  ---------------------------------------------------------------------------------------------
    Convergence Criteria    1.00e-06 *    3.00e-04 *             o    1.20e-03 *             o
  ---------------------------------------------------------------------------------------------
      6    -115.83028233   -2.07e-07 *    1.35e-04 *    4.90e-05 o    1.69e-04 *    9.26e-05 o  ~
  ---------------------------------------------------------------------------------------------


  **** Optimization is complete! ****

  ==> Optimization Summary <==

  Measures of convergence in internal coordinates in au.
  --------------------------------------------------------------------------------------------------------------- ~
   Step         Total Energy             Delta E       MAX Force       RMS Force        MAX Disp        RMS Disp  ~
  --------------------------------------------------------------------------------------------------------------- ~
      1    -115.754163400892   -115.754163400892      0.15902609      0.05527645      0.35564444      0.12407038  ~
      2    -115.827079998063     -0.072916597171      0.01550061      0.00672106      0.09543285      0.03970830  ~
      3    -115.829992318927     -0.002912320864      0.00440647      0.00221008      0.04040204      0.01705817  ~
      4    -115.830278749087     -0.000286430160      0.00065377      0.00037768      0.00231711      0.00135469  ~
      5    -115.830282125255     -0.000003376168      0.00042142      0.00014164      0.00072245      0.00025515  ~
      6    -115.830282332601     -0.000000207346      0.00013491      0.00004905      0.00016875      0.00009259  ~
  --------------------------------------------------------------------------------------------------------------- ~

	Writing optimization data to binary file.
	Final energy is   -115.8302823326009
	Final (previous) structure:
	Cartesian Geometry (au)
	    H    -3.5255849667  -1.2280821012   1.2280821012
	    H    -3.5255849667   1.2280821012  -1.2280821012
	    C    -2.4742170577  -0.0000000000   0.0000000000
	    C     0.0000000000   0.0000000000   0.0000000000
	    C     2.4742170577   0.0000000000   0.0000000000
	    H     3.5255849667   1.2280821012   1.2280821012
	    H     3.5255849667  -1.2280821012  -1.2280821012
	Saving final (previous) structure.
			--------------------------
			 OPTKING Finished Execution 
			--------------------------

*** PSI4 exiting successfully. Buy a developer a beer!
