    -----------------------------------------------------------------------
          PSI4: An Open-Source Ab Initio Electronic Structure Package
                              PSI 4.0.0-beta1 Driver

               Git: Rev 8268e5ba0276eef671d5bc4a44cf66fa46407463

    J. M. Turney, A. C. Simmonett, R. M. Parrish, E. G. Hohenstein,
    F. A. Evangelista, J. T. Fermann, B. J. Mintz, L. A. Burns, J. J. Wilke,
    M. L. Abrams, N. J. Russ, M. L. Leininger, C. L. Janssen, E. T. Seidl,
    W. D. Allen, H. F. Schaefer, R. A. King, E. F. Valeev, C. D. Sherrill,
    and T. D. Crawford, WIREs Comput. Mol. Sci., (2011) (doi: 10.1002/wcms.93)

                         Additional Contributions by
    A. E. DePrince, M. Saitow, U. Bozkaya, A. Yu. Sokolov
    -----------------------------------------------------------------------


    Using LocalCommunicator (Number of processes = 1)

    Memory level set to 256.000 MB

  ==> Input File <==

--------------------------------------------------------------------------
#! Mk-MRCCSD(T) single point. $^1A@@1$ CH2 state described using
#! the Ms = 0 component of the singlet.  Uses RHF singlet orbitals.

memory 250 mb

refnuc      =    5.912862514729  #TEST
refscf      =  -38.856259245279  #TEST
refmkccsd_t =  -38.985106600305  #TEST

molecule ch2 {
  0 1
  C         0.000000000000    -0.071831139101     0.000000000000
  H         2.056713670133     0.427640533717     0.000000000000
  H        -2.056713670133     0.427640533717     0.000000000000

  units au
}

set {
  basis cc-pvdz
  e_convergence 10
  d_convergence 10
  r_convergence 10
}

set mcscf {
  reference       twocon
  # The socc and docc needn't be specified; in this case the code will converge correctly without
  docc            [2,0,1,0]      # Doubly occupied MOs
  socc            [1,0,0,1]      # Singly occupied MOs
}

set psimrcc {
  corr_wfn        ccsd_t         # Do Mk-MRCCSD(T) 
  frozen_docc     [0,0,0,0]      # Frozen MOs
  restricted_docc [2,0,1,0]      # Doubly occupied MOs
  active          [1,0,0,1]      # Active MOs
  frozen_uocc     [0,0,0,0]      # Frozen virtual MOs
  corr_multp      1              # Select the Ms = 0 component
  wfn_sym         A1             # Select the A1 state
  heff4           false
}

energy('psimrcc')
compare_values(refnuc, ch2.nuclear_repulsion_energy()     , 9, "Nuclear repulsion energy") #TEST 
compare_values(refscf, get_variable("SCF TOTAL ENERGY")  , 9, "SCF energy")               #TEST 
compare_values(refmkccsd_t, get_variable("CURRENT ENERGY") , 8, "MkCCSD energy")            #TEST 
--------------------------------------------------------------------------

  Memory set to 250.000 MiB by Python script.

         ------------------------------------------
           MCSCF: a self-consistent field program
            written by Francesco A. Evangelista
         ------------------------------------------    Molecular point group: c2v

    Geometry (in Bohr), charge = 0, multiplicity = 1:

       Center              X                  Y                   Z       
    ------------   -----------------  -----------------  -----------------
           C          0.000000000000     0.000000000000    -0.071831139101
           H          2.056713670133     0.000000000000     0.427640533717
           H         -2.056713670133    -0.000000000000     0.427640533717

  -AO BASIS SET INFORMATION:
    Name                   = cc-pvdz
    Total number of shells = 12
    Number of primitives   = 32
    Number of AO           = 25
    Number of SO           = 24
    Maximum AM             = 2
    Spherical Harmonics    = TRUE

  -Contraction Scheme:
    Atom   Type   All Primitives // Shells:
   ------ ------ --------------------------
       1     C     17s 4p 1d // 3s 2p 1d 
       2     H     4s 1p // 2s 1p 
       3     H     4s 1p // 2s 1p 

  -Basis set on unique center 1: C
     S (       6665.00000000           0.36358430)
       (       1000.00000000           0.67498579)
       (        228.00000000           1.13161994)
       (         64.71000000           1.65300921)
       (         21.06000000           1.92382064)
       (          7.49500000           1.44727832)
       (          2.79700000           0.43916313)
       (          0.52150000           0.00664580)
     S (       6665.00000000          -0.15417975)
       (       1000.00000000          -0.29378537)
       (        228.00000000          -0.48089580)
       (         64.71000000          -0.76143432)
       (         21.06000000          -0.90010389)
       (          7.49500000          -0.97261135)
       (          2.79700000          -0.39404195)
       (          0.52150000           0.47839442)
     S (          0.15960000           0.17996364)
     P (          9.43900000           1.34373711)
       (          2.00200000           1.06316809)
       (          0.54560000           0.50823183)
     P (          0.15170000           0.13494974)
     D (          0.55000000           0.57815484)

  -Basis set on unique center 2: H
     S (         13.01000000           0.16354842)
       (          1.96200000           0.27741754)
       (          0.44460000           0.31574931)
     S (          0.12200000           0.14712279)
     P (          0.72700000           0.95688138)

  -Basis set on unique center 3: H
     S (         13.01000000           0.16354842)
       (          1.96200000           0.27741754)
       (          0.44460000           0.31574931)
     S (          0.12200000           0.14712279)
     P (          0.72700000           0.95688138)

 MINTS: Wrapper to libmints.
   by Justin Turney

   Calculation information:
      Number of atoms:                   3
      Number of AO shells:              12
      Number of SO shells:               9
      Number of primitives:             32
      Number of atomic orbitals:        25
      Number of basis functions:        24

      Number of irreps:                  4
      Number of functions per irrep: [  11    2    7    4 ]

      Overlap, kinetic, potential, dipole, and quadrupole integrals
        stored in file 35.

      Computing two-electron integrals...done
      Computed 11412 non-zero two-electron integrals.
        Stored in file 33.



  MOs per irrep:                                      A1  A2  B1  B2 Total
  ----------------------------------------------------------------------------
  Total                                               11    2    7    4    24
  Doubly Occupied                                      2    0    1    0     3
  Active/Singly Occupied                               1    0    0    1     2
  ----------------------------------------------------------------------------

  Running an SCF calculation
  TWOCON MOs = [2 (A1),20 (B2)]

  Generated 300 pairs
  Distributed as [107 A1][50 A2][85 B1][58 B2]
  batch   0 pq = [       0,     107] index = [               0,            5778]

  Allocated the PK matrix (5778 elements) 
  Allocated the  K matrix (5778 elements) 
  Reading the two-electron integrals to form PK and K ... 
  batch   0 ... done.


  =========================================================================================
         Cycle          Energy               D(Energy)            D(Density)            DIIS
  =========================================================================================== S
  @SCF    0      -35.217099379688     -35.217099379688       0.092024491246
    ci      = [ 0.00000000, 0.00000000]
    ci_grad = [ 0.00000000, 0.00000000] S
  @SCF    1      -38.695980886197      -3.478881506509       0.089062415545
    ci      = [ 0.00000000, 0.00000000]
    ci_grad = [ 0.00000000, 0.00000000] S
  @SCF    2      -38.684544402951       0.011436483246       0.002522450978
    ci      = [ 0.00000000, 0.00000000]
    ci_grad = [ 0.00000000, 0.00000000] S
  @SCF    3      -38.686558719308      -0.002014316357       0.000925886613
    ci      = [ 0.00000000, 0.00000000]
    ci_grad = [ 0.00000000, 0.00000000] S
  @SCF    4      -38.685747993215       0.000810726093       0.000497150929
    ci      = [ 0.00000000, 0.00000000]
    ci_grad = [ 0.00000000, 0.00000000] S
  @SCF    5      -38.686397763093      -0.000649769878       0.000291471255
    ci      = [ 0.00000000, 0.00000000]
    ci_grad = [ 0.00000000, 0.00000000] S
  @SCF    6      -38.686107053652       0.000290709441       0.000198741489
    ci      = [ 0.00000000, 0.00000000]
    ci_grad = [ 0.00000000, 0.00000000] S/E
  @SCF    7      -38.686324212779      -0.000217159127       0.000147232828
    ci      = [ 0.00000000, 0.00000000]
    ci_grad = [ 0.00000000, 0.00000000] S/E
  @SCF    8      -38.686265671633       0.000058541146       0.000065655964
    ci      = [ 0.00000000, 0.00000000]
    ci_grad = [ 0.00000000, 0.00000000] S/E
  @SCF    9      -38.686266082151      -0.000000410518       0.000000085706
    ci      = [-0.84659285, 0.53224106]
    ci_grad = [ 0.00000000, 0.00000000] S/E
  @SCF   10      -38.686266008850       0.000000073301       0.000000018646
    ci      = [-0.84659287, 0.53224103]
    ci_grad = [-0.00000006, 0.00000004] S/E
  @SCF   11      -38.686266069073      -0.000000060223       0.000000007387
    ci      = [-0.84659301, 0.53224080]
    ci_grad = [ 0.00000006,-0.00000002] S/E
  @SCF   12      -38.686265868277       0.000000200796       0.000000027123
    ci      = [-0.84659259, 0.53224147]
    ci_grad = [-0.00000019, 0.00000007] S/E
  @SCF   13      -38.686265959815      -0.000000091539       0.000000015225
    ci      = [-0.84659186, 0.53224264]
    ci_grad = [ 0.00000004,-0.00000011] S/E
  @SCF   14      -38.686266042023      -0.000000082207       0.000000011145
    ci      = [-0.84659195, 0.53224249]
    ci_grad = [ 0.00000007,-0.00000004] S/E
  @SCF   15      -38.686266197146      -0.000000155123       0.000000022120
    ci      = [-0.84659222, 0.53224206]
    ci_grad = [ 0.00000015,-0.00000006] S/E
  @SCF   16      -38.686266069530       0.000000127616       0.000000039586
    ci      = [-0.84659025, 0.53224519]
    ci_grad = [-0.00000021,-0.00000010] S/E
  @SCF   17      -38.850862314619      -0.164596245089       0.031419097802
    ci      = [-0.84659025, 0.53224519]
    ci_grad = [ 0.13924963,-0.08775727] S/E
  @SCF   18      -38.854888545909      -0.004026231290       0.007901136492
    ci      = [-0.84659025, 0.53224519]
    ci_grad = [ 0.00417351,-0.00086754] S/E
  @SCF   19      -38.854891469485      -0.000002923576       0.000925603397
    ci      = [-0.85991301, 0.51044061]
    ci_grad = [ 0.00095179, 0.00159770] S/E
  @SCF   20      -38.854690978225       0.000200491259       0.000592823567
    ci      = [-0.85991301, 0.51044061]
    ci_grad = [ 0.00006456, 0.00050734] S/E
  @SCF   21      -38.855817069285      -0.001126091060       0.001352107801
    ci      = [-0.85991301, 0.51044061]
    ci_grad = [ 0.00102968,-0.00047109] S/E
  @SCF   22      -38.856199441040      -0.000382371755       0.001168676339
    ci      = [-0.85991301, 0.51044061]
    ci_grad = [ 0.00081834, 0.00065259] S/E
  @SCF   23      -38.856234557254      -0.000035116214       0.000290615018
    ci      = [-0.85991301, 0.51044061]
    ci_grad = [ 0.00064470, 0.00105342] S/E
  @SCF   24      -38.856244279817      -0.000009722563       0.000136682450
    ci      = [-0.86836307, 0.49592901]
    ci_grad = [ 0.00070433, 0.00121367] S/E
  @SCF   25      -38.856245912922      -0.000001633106       0.000040578273
    ci      = [-0.86856284, 0.49557906]
    ci_grad = [ 0.00001815, 0.00002851] S/E
  @SCF   26      -38.856246011838      -0.000000098915       0.000000993335
    ci      = [-0.86857894, 0.49555083]
    ci_grad = [ 0.00000144, 0.00000232] S/E
  @SCF   27      -38.856243353054       0.000002658784       0.000026586252
    ci      = [-0.86817435, 0.49625930]
    ci_grad = [-0.00003615,-0.00005788] S/E
  @SCF   28      -38.856248073651      -0.000004720597       0.000047491775
    ci      = [-0.86891785, 0.49495633]
    ci_grad = [ 0.00006646, 0.00010713] S/E
  @SCF   29      -38.856252192315      -0.000004118664       0.000050439105
    ci      = [-0.86972155, 0.49354273]
    ci_grad = [ 0.00007133, 0.00011736] S/E
  @SCF   30      -38.856256079789      -0.000003887473       0.000065223351
    ci      = [-0.87076499, 0.49169942]
    ci_grad = [ 0.00009190, 0.00015485] S/E
  @SCF   31      -38.856257804343      -0.000001724554       0.000043658022
    ci      = [-0.87146418, 0.49045915]
    ci_grad = [ 0.00006113, 0.00010509] S/E
  @SCF   32      -38.856258968135      -0.000001163792       0.000052060712
    ci      = [-0.87228848, 0.48899162]
    ci_grad = [ 0.00007168, 0.00012548] S/E
  @SCF   33      -38.856259082322      -0.000000114187       0.000009821817
    ci      = [-0.87243975, 0.48872168]
    ci_grad = [ 0.00001310, 0.00002314] S/E
  @SCF   34      -38.856259164197      -0.000000081875       0.000009240110
    ci      = [-0.87258675, 0.48845918]
    ci_grad = [ 0.00001271, 0.00002254] S/E
  @SCF   35      -38.856259213020      -0.000000048823       0.000008203609
    ci      = [-0.87271699, 0.48822644]
    ci_grad = [ 0.00001125, 0.00002002] S/E
  @SCF   36      -38.856259237982      -0.000000024962       0.000007341234
    ci      = [-0.87283389, 0.48801742]
    ci_grad = [ 0.00001009, 0.00001800] S/E
  @SCF   37      -38.856259241598      -0.000000003616       0.000001926709
    ci      = [-0.87286464, 0.48796241]
    ci_grad = [ 0.00000265, 0.00000474] S/E
  @SCF   38      -38.856259245269      -0.000000003672       0.000004489224
    ci      = [-0.87293611, 0.48783455]
    ci_grad = [ 0.00000616, 0.00001102] S/E
  @SCF   39      -38.856259244841       0.000000000428       0.000001383331
    ci      = [-0.87291406, 0.48787401]
    ci_grad = [-0.00000190,-0.00000340] S/E
  @SCF   40      -38.856259245131      -0.000000000290       0.000000684004
    ci      = [-0.87292494, 0.48785454]
    ci_grad = [ 0.00000094, 0.00000168] S/E
  @SCF   41      -38.856259245190      -0.000000000059       0.000000211627
    ci      = [-0.87292831, 0.48784852]
    ci_grad = [ 0.00000029, 0.00000052] S/E
  @SCF   42      -38.856259245229      -0.000000000039       0.000000184803
    ci      = [-0.87293125, 0.48784325]
    ci_grad = [ 0.00000025, 0.00000045] S/E
  @SCF   43      -38.856259245270      -0.000000000041       0.000000311254
    ci      = [-0.87293620, 0.48783439]
    ci_grad = [ 0.00000043, 0.00000076] S/E
  @SCF   44      -38.856259245273      -0.000000000003       0.000000039347
    ci      = [-0.87293682, 0.48783327]
    ci_grad = [ 0.00000005, 0.00000010] S/E
  @SCF   45      -38.856259245277      -0.000000000005       0.000000088595
    ci      = [-0.87293823, 0.48783075]
    ci_grad = [ 0.00000012, 0.00000022] S/E
  @SCF   46      -38.856259245279      -0.000000000002       0.000000061606
    ci      = [-0.87293921, 0.48782899]
    ci_grad = [ 0.00000008, 0.00000015] S/E
  @SCF   47      -38.856259245279      -0.000000000000       0.000000014697
    ci      = [-0.87293945, 0.48782858]
    ci_grad = [ 0.00000002, 0.00000004] S/E
  @SCF   48      -38.856259245280      -0.000000000000       0.000000030309
    ci      = [-0.87293993, 0.48782771]
    ci_grad = [ 0.00000004, 0.00000007] S/E
  @SCF   49      -38.856259245280      -0.000000000000       0.000000000366
    ci      = [-0.87293994, 0.48782770]
    ci_grad = [ 0.00000000, 0.00000000] S/E
  @SCF   50      -38.856259245280       0.000000000000       0.000000008366
    ci      = [-0.87294007, 0.48782746]
    ci_grad = [ 0.00000001, 0.00000002] S/E
  @SCF   51      -38.856259245280      -0.000000000000       0.000000001861
    ci      = [-0.87294004, 0.48782752]
    ci_grad = [-0.00000000,-0.00000000] S/E
  @SCF   52      -38.856259245280       0.000000000000       0.000000001524
    ci      = [-0.87294006, 0.48782747]
    ci_grad = [ 0.00000000, 0.00000000] S/E
  @SCF   53      -38.856259245280      -0.000000000000       0.000000000776
    ci      = [-0.87294008, 0.48782745]
    ci_grad = [ 0.00000000, 0.00000000] S/E
  @SCF   54      -38.856259245280       0.000000000000       0.000000000480
    ci      = [-0.87294008, 0.48782744]
    ci_grad = [ 0.00000000, 0.00000000] S/E
  @SCF   55      -38.856259245280      -0.000000000000       0.000000000899
    ci      = [-0.87294010, 0.48782741]
    ci_grad = [ 0.00000000, 0.00000000] S/E
  @SCF   56      -38.856259245280       0.000000000000       0.000000000280
    ci      = [-0.87294010, 0.48782740]
    ci_grad = [ 0.00000000, 0.00000000] S/E
  @SCF   57      -38.856259245280       0.000000000000       0.000000000157
    ci      = [-0.87294011, 0.48782740]
    ci_grad = [ 0.00000000, 0.00000000] S/E
  @SCF   58      -38.856259245280      -0.000000000000       0.000000000119
    ci      = [-0.87294011, 0.48782740]
    ci_grad = [ 0.00000000, 0.00000000] S/E
  @SCF   59      -38.856259245280      -0.000000000000       0.000000000018
    ci      = [-0.87294011, 0.48782740]
    ci_grad = [ 0.00000000, 0.00000000] S/E
  @SCF   60      -38.856259245280       0.000000000000       0.000000000044
    ci      = [-0.87294011, 0.48782740]
    ci_grad = [ 0.00000000, 0.00000000] S/E
  @SCF   61      -38.856259245280      -0.000000000000       0.000000000025
    ci      = [-0.87294011, 0.48782739]
    ci_grad = [ 0.00000000, 0.00000000] S/E
  @SCF   62      -38.856259245280       0.000000000000       0.000000000022
    ci      = [-0.87294011, 0.48782739]
    ci_grad = [ 0.00000000, 0.00000000] S/E
  @SCF   63      -38.856259245280       0.000000000000       0.000000000000
    ci      = [-0.87294011, 0.48782739]
    ci_grad = [ 0.00000000, 0.00000000]
  =========================================================================================

      * SCF total energy   =     -38.856259245280


      CI coefficients  = [-0.872940109, 0.487827394]

  End of SCF
  MOs orthonormality check passed.

  Orbitals are canonicalized as:
  inactive (docc + uocc) : Fock(core)
  active   (actv)        : Fock(core)

  =========================================================================
  Eigenvalues (Eh)
  -------------------------------------------------------------------------
  Doubly occupied orbitals
      1    -11.268429  A1      2     -0.843063  A1      3     -0.607831  B1
  Active orbitals
      4     -0.228703  A1      5      0.002988  B2
  Unoccupied orbitals
      6      0.187988  A1      7      0.252268  B1      8      0.554252  A1
      9      0.723918  A1     10      0.725087  B2     11      0.814280  B1
     12      0.910894  B1     13      0.984582  A1     14      1.167148  A2
     15      1.375863  B1     16      1.395025  B2     17      1.398296  A1
     18      1.713621  A1     19      1.761852  B2     20      2.047742  A1
     21      2.201395  B1     22      2.239307  A2     23      2.639201  B1
     24      3.074231  A1
  =========================================================================


  MCSCF Execution Completed.


*** tstop() called on lawn-143-215-103-161.lawn.gatech.edu at Fri Apr 27 14:41:35 2012
Module time:
	user time   =       0.22 seconds =       0.00 minutes
	system time =       0.09 seconds =       0.00 minutes
	total time  = 1335552095 seconds = 22259201.58 minutes
Total time:
	user time   =       0.22 seconds =       0.00 minutes
	system time =       0.09 seconds =       0.00 minutes
	total time  = 1335552095 seconds = 22259201.58 minutes

  MRCC          MRCC
   MRCC  MRCC  MRCC
   MRCC  MRCC  MRCC      PSIMRCC Version 0.9.3.3, July 2009
   MRCC  MRCC  MRCC      Multireference Coupled Cluster, written by
     MRCCMRCCMRCC        Francesco A. Evangelista and Andrew C. Simmonett
         MRCC            Compiled on Apr 27 2012 at 13:46:20
         MRCC            id = 6a707c99fd2213714c6c78cfcd145480721f0359 
       MRCCMRCC

  ==============================================================================
  System Info:
  ------------------------------------------------------------------------------
  Nuclear Energy   = 5.912862515      SCF Energy       = -38.856259245  

  MOs and Symmetry:
  ------------------------------------------------------------------------------
  nirreps          = 4                root             = 0         
  nso              = 24               nmo              = 24        
  nael             = 4                nbel             = 4         
  nactive_ael      = 1                nactive_bel      = 1         

  Details of the Computation:
  ------------------------------------------------------------------------------

  MOs per irrep:                                        A1  A2  B1  B2 Total
  ------------------------------------------------------------------------------
  Total                                                 11    2    7    4    24
  Frozen Occupied                                        0    0    0    0     0
  Doubly Occupied                                        2    0    1    0     3
  Active                                                 1    0    0    1     2
  External                                               8    2    6    3    19
  Frozen Virtual                                         0    0    0    0     0

  Model space
  ------------------------------------------------------------------------------
   0  |[220][][2][2]>
   1  |[222][][2][0]>
  ==============================================================================

  Allocated work array of size 23960 (0.02 MiB)
  Allocated buffer array of size 12608344 (12.02 MiB)	Presorting SO-basis two-electron integrals.
	Sorting File: SO Ints (nn|nn) nbuckets = 1
	Transforming the one-electron integrals and constructing Fock matrices
	Starting first half-transformation.
	Sorting half-transformed integrals.
	First half integral transformation complete.
	Starting second half-transformation.
	Two-electron integral transformation complete.


  Presorting two-electron integrals from IWL buffer
    Memory available                       =      237001608 bytes
    Memory available for presorting        =      177751206 bytes (75.0%)
    Memory required for in-core presort    =          99352 bytes
    Presorting is not required
    Reading irreps 0 -> 3 (12419 non-zero integrals)

  Sorting integrals:
    Memory available                       =      236997000 bytes
    Memory available for sorting           =      118498500 bytes (50.0%)

    Pass 1:
    Setting up the matrix list: added 316 matrices blocks
    Integrals from irreps 0 -> 3 will be read in core

    Frozen-core energy                     =          0.000000000

  Computing storage strategy:
    Input memory                           =      250000000 bytes
    Free memory                            =      236997000 bytes
    Free memory available for matrices     =      229887090 bytes ( 97%)
    Memory required by fock matrices       =          14448 bytes
    Memory required by integrals           =        1352776 bytes
    Memory required by other matrices      =        3849088 bytes
    Memory required for in-core algorithm  =        5216312 bytes
    PSIMRCC will perform a full in-core computation

  Options:
  ----------------------------------------------------------------------------
  ACTIVE               => [ 1, 0, 0, 1 ] !
  BENCH                => 0               
  CC_NUM_THREADS       => 1               
  CORR_ANSATZ          => MK              
  CORR_CCSD_T          => STANDARD        
  CORR_CHARGE          => 0               
  CORR_MULTP           => 1              !
  CORR_REFERENCE       => GENERAL         
  CORR_WFN             => CCSD_T         !
  COUPLING             => CUBIC           
  COUPLING_TERMS       => TRUE            
  DAMPING_PERCENTAGE   => 0               
  DEBUG                => 0               
  DERTYPE              => NONE            
  DIAGONALIZE_HEFF     => FALSE           
  DIAGONAL_CCSD_T      => TRUE            
  DIIS_MAX_VECS        => 7               
  DIIS_START           => 2               
  DOCC                 => [  ]            
  E_CONVERGENCE        => 1e-10          !
  FAVG_CCSD_T          => FALSE           
  FOLLOW_ROOT          => 1               
  FREEZE_CORE          => FALSE           
  FROZEN_DOCC          => [ 0, 0, 0, 0 ] !
  FROZEN_UOCC          => [ 0, 0, 0, 0 ] !
  HEFF4                => FALSE          !
  HEFF_PRINT           => FALSE           
  LOCK_SINGLET         => FALSE           
  MAT_NUM_COLUMN_PRINT => 5               
  MAXITER              => 100             
  MP2_CCSD_METHOD      => II              
  MP2_GUESS            => TRUE            
  NO_SINGLES           => FALSE           
  NUM_FROZEN_DOCC      => 0               
  NUM_FROZEN_UOCC      => 0               
  OFFDIAGONAL_CCSD_T   => TRUE            
  PERTURB_CBS          => FALSE           
  PERTURB_CBS_COUPLING => TRUE            
  PRINT                => 1               
  PROPERTIES           => [  ]            
  PT_ENERGY            => SECOND_ORDER    
  PUREAM               => TRUE            
  RESTRICTED_DOCC      => [ 2, 0, 1, 0 ] !
  R_CONVERGENCE        => 1e-10          !
  SMALL_CUTOFF         => 0               
  SOCC                 => [  ]            
  TIKHONOW_MAX         => 5               
  TIKHONOW_OMEGA       => 0               
  TIKHONOW_TRIPLES     => FALSE           
  TRIPLES_ALGORITHM    => RESTRICTED      
  TRIPLES_DIIS         => FALSE           
  UNITS                => ANGSTROMS       
  USE_SPIN_SYM         => TRUE            
  USE_SPIN_SYMMETRY    => TRUE            
  WFN                  => SCF             
  WFN_SYM              => A1             !
  ZERO_INTERNAL_AMPS   => TRUE            



  Heff Matrix

         -38.790552996141         0.036718794306
           0.036718794306       -38.835739585842

  Left Matrix

          -0.487827394137         0.872940108787
           0.872940108787         0.487827394137

  Right Matrix

          -0.487827394137         0.872940108787
           0.872940108787         0.487827394137

  Real                  Imaginary

        -38.856259245280           0.000000000000
        -38.770033336703           0.000000000000


  The eigenvalue for root 0 is -38.856259245280 (0.000000000000)

  Heff Matrix

      -38.790552996141166      0.036718794305707
        0.036718794305707    -38.835739585841687

  Most important determinants in the wave function

  determinant  eigenvector   eigenvector^2

            1    0.872940     0.762024  |[222][][2][0]>
            0   -0.487827     0.237976  |[220][][2][2]>

  ==============================================================================
  	Multireference Coupled Cluster
		Using the DPD Library
  ==============================================================================

  ------------------------------------------------------------------------------
  @CC Cycle      Energy          Delta E    ||DeltaT1|| ||DeltaT2|| Timing  DIIS
  @CC           (Hartree)       (Hartree)                           (Sec)
  ------------------------------------------------------------------------------
  @CC   0    -38.856259245280   0.0000e+00   0.000e+00   0.000e+00       0
  Tikhonow regularization turned on.  Omega = 0.000e+00   S
  @CC   1    -38.961955244947  -1.0570e-01   4.616e-02   1.714e-01       0
  Tikhonow regularization turned on.  Omega = 0.000e+00   S
  @CC   2    -38.978073446784  -1.6118e-02   1.666e-02   2.918e-02       0
  Tikhonow regularization turned on.  Omega = 0.000e+00   S
  @CC   3    -38.981556524001  -3.4831e-03   7.379e-03   1.053e-02       0
  Tikhonow regularization turned on.  Omega = 0.000e+00   S
  @CC   4    -38.982558729000  -1.0022e-03   3.564e-03   4.738e-03       0
  Tikhonow regularization turned on.  Omega = 0.000e+00   S
  @CC   5    -38.982904805335  -3.4608e-04   1.822e-03   2.292e-03       0   S
  @CC   6    -38.983036406207  -1.3160e-04   9.665e-04   1.179e-03       0   S/E
  @CC   7    -38.983136888836  -1.0048e-04   5.285e-04   6.485e-04       0   S
  @CC   8    -38.983133947389   2.9414e-06   3.376e-05   8.043e-05       0   S
  @CC   9    -38.983133745080   2.0231e-07   1.645e-05   3.447e-05       0   S
  @CC  10    -38.983133771241  -2.6161e-08   1.063e-05   2.037e-05       0   S
  @CC  11    -38.983133814203  -4.2962e-08   7.395e-06   1.321e-05       0   S
  @CC  12    -38.983133846186  -3.1982e-08   5.080e-06   8.904e-06       0   S
  @CC  13    -38.983133868287  -2.2102e-08   3.494e-06   6.124e-06       1   S/E
  @CC  14    -38.983133926492  -5.8205e-08   2.405e-06   4.262e-06       1   S
  @CC  15    -38.983133935889  -9.3973e-09   6.527e-08   1.304e-07       1   S
  @CC  16    -38.983133938032  -2.1426e-09   2.582e-08   3.813e-08       1   S
  @CC  17    -38.983133938996  -9.6480e-10   1.168e-08   1.729e-08       1   S
  @CC  18    -38.983133939412  -4.1511e-10   6.519e-09   9.376e-09       1   S
  @CC  19    -38.983133939612  -2.0015e-10   3.670e-09   5.584e-09       1   S
  @CC  20    -38.983133939716  -1.0451e-10   2.106e-09   3.556e-09       1   S/E
  @CC  21    -38.983133939878  -1.6153e-10   1.230e-09   2.373e-09       1   S
  @CC  22    -38.983133939872   5.2154e-12   9.414e-11   1.516e-10       1   S
  @CC  23    -38.983133939870   2.3377e-12   2.153e-11   6.556e-11       1
  ------------------------------------------------------------------------------

        Mk-MRCCSD total energy      =     -38.983133939870


  Heff Matrix

      -38.938283708514241      0.024469302185794
        0.024185299292017    -38.969938971216948

  Most important determinants in the wave function

  determinant  eigenvector   eigenvector^2

            1    0.877850     0.770621  |[222][][2][0]>
            0   -0.478936     0.229379  |[220][][2][2]>

  Timing for singles and doubles:             0.960583 s

  Computing (T) correction using the restricted loop algorithm.


  Mk-MRCCSD(T) diagonal contributions to the effective Hamiltonian:

   Ref         E[4]              E_T[4]            E_ST[4]           E_DT[4]
  ------------------------------------------------------------------------------
    0     -0.002013135960   -0.002115315917    0.000090439088    0.000011740869
    1     -0.002155630848   -0.002189647145    0.000031000393    0.000003015904
   Tot    -0.002123238582   -0.002172749999    0.000044512134    0.000004999283
  ------------------------------------------------------------------------------

  Mk-MRCCSD(T) off-diagonal contributions to the effective Hamiltonian:

    0.000000000000   -0.000179728202
   -0.000179553663    0.000000000000

  Total     diagonal (T) correction:   -0.002123238582
  Total off-diagonal (T) correction:    0.000150578053
  Total              (T) correction:   -0.001972660529

  Hamiltonian Matrix

      -38.940296844474439      0.024289573983857
        0.024005745628917    -38.972094602065390

  Computing the expectation value of Heff

      * Mk-MRCCSD(T) total energy   =        -38.985106600399

  Timing for triples:                         0.126785 s

  PSIMRCC job completed.
  Wall Time =             1.241452 s
  GEMM Time =             0.205453 s

  ==============================================================================
  Memory Usage Report

  Maximum memory used:     19.0 Mb 
  Number of objects still in memory: 0       Current bytes used: 0             
  ==============================================================================

*** PSI4 exiting successfully. Buy a developer a beer!
