    -----------------------------------------------------------------------
          PSI4: An Open-Source Ab Initio Electronic Structure Package
                              PSI 4.0.0-beta1 Driver

               Git: Rev 8268e5ba0276eef671d5bc4a44cf66fa46407463

    J. M. Turney, A. C. Simmonett, R. M. Parrish, E. G. Hohenstein,
    F. A. Evangelista, J. T. Fermann, B. J. Mintz, L. A. Burns, J. J. Wilke,
    M. L. Abrams, N. J. Russ, M. L. Leininger, C. L. Janssen, E. T. Seidl,
    W. D. Allen, H. F. Schaefer, R. A. King, E. F. Valeev, C. D. Sherrill,
    and T. D. Crawford, WIREs Comput. Mol. Sci., (2011) (doi: 10.1002/wcms.93)

                         Additional Contributions by
    A. E. DePrince, M. Saitow, U. Bozkaya, A. Yu. Sokolov
    -----------------------------------------------------------------------


    Using LocalCommunicator (Number of processes = 1)

    Memory level set to 256.000 MB

  ==> Input File <==

--------------------------------------------------------------------------
#! SCF DZ finite difference frequencies by energies for C4NH4

memory 250 mb

molecule c4nh4 {
  units angstrom
  -1 1
    C         0.000000000000     0.000000000000     1.119905811674
    N         0.000000000000     0.000000000000     2.310087277449
    C         0.000000000000     0.000000000000    -0.231085072523
    C        -0.781617287494     0.000000000000    -1.483869398827
    C         0.781617287494     0.000000000000    -1.483869398827
    H        -1.274488047821    -0.899961499592    -1.835960153318
    H        -1.274488047821     0.899961499592    -1.835960153318
    H         1.274488047821     0.899961499592    -1.835960153318
    H         1.274488047821    -0.899961499592    -1.835960153318
}

# Test against analytic second derivatives from PSI3 (for now). #TEST
anal_freqs = PsiMod.Vector(21) #TEST
anal_freqs.set(0, 0,  -184.0613) #TEST
anal_freqs.set(0, 1,   236.5665) #TEST
anal_freqs.set(0, 2,   601.8179) #TEST
anal_freqs.set(0, 3,   663.5969) #TEST
anal_freqs.set(0, 4,   667.0854) #TEST
anal_freqs.set(0, 5,   895.5586) #TEST
anal_freqs.set(0, 6,  1008.6894) #TEST
anal_freqs.set(0, 7,  1008.9522) #TEST
anal_freqs.set(0, 8,  1046.9718) #TEST
anal_freqs.set(0, 9,  1160.1266) #TEST
anal_freqs.set(0,10,  1161.1594) #TEST
anal_freqs.set(0,11,  1215.7027) #TEST
anal_freqs.set(0,12,  1225.2493) #TEST
anal_freqs.set(0,13,  1600.6695) #TEST
anal_freqs.set(0,14,  1622.1779) #TEST
anal_freqs.set(0,15,  1673.4861) #TEST
anal_freqs.set(0,16,  2239.4185) #TEST
anal_freqs.set(0,17,  3171.5147) #TEST
anal_freqs.set(0,18,  3182.4027) #TEST
anal_freqs.set(0,19,  3224.7634) #TEST
anal_freqs.set(0,20,  3244.2997) #TEST

a1_freqs = PsiMod.Vector(7) #TEST
a1_freqs.set(0, 0, anal_freqs[ 4]) #TEST
a1_freqs.set(0, 1, anal_freqs[ 7]) #TEST
a1_freqs.set(0, 2, anal_freqs[10]) #TEST
a1_freqs.set(0, 3, anal_freqs[13]) #TEST
a1_freqs.set(0, 4, anal_freqs[15]) #TEST
a1_freqs.set(0, 5, anal_freqs[16]) #TEST
a1_freqs.set(0, 6, anal_freqs[18]) #TEST

a2_freqs = PsiMod.Vector(3) #TEST
a2_freqs.set(0, 0, anal_freqs[6]) #TEST
a2_freqs.set(0, 1, anal_freqs[12]) #TEST
a2_freqs.set(0, 2, anal_freqs[19]) #TEST

b1_freqs = PsiMod.Vector(6) #TEST
b1_freqs.set(0, 0, anal_freqs[1]) #TEST
b1_freqs.set(0, 1, anal_freqs[3]) #TEST
b1_freqs.set(0, 2, anal_freqs[8]) #TEST
b1_freqs.set(0, 3, anal_freqs[11]) #TEST
b1_freqs.set(0, 4, anal_freqs[14]) #TEST
b1_freqs.set(0, 5, anal_freqs[17]) #TEST

b2_freqs = PsiMod.Vector(5) #TEST
b2_freqs.set(0, 0, anal_freqs[0]) #TEST
b2_freqs.set(0, 1, anal_freqs[2]) #TEST
b2_freqs.set(0, 2, anal_freqs[5]) #TEST
b2_freqs.set(0, 3, anal_freqs[9]) #TEST
b2_freqs.set(0, 4, anal_freqs[20]) #TEST

# Compute all frequencies by 3-pt formula.
set globals {
  basis dz
  d_convergence 11
}

frequencies('scf', dertype=1)

fd_freqs = PsiMod.reference_wavefunction().frequencies() #TEST
compare_vectors(anal_freqs, fd_freqs, 1, "C4NH4 frequencies by gradients (3-pt.) to 0.1 cm^-1") #TEST
del fd_freqs #TEST

# Compute A2 frequencies by 5-pt formula.
set findif {
 points 5
 disp_size 0.01
}

frequencies('scf', dertype=1, irrep=2)

fd_freqs = PsiMod.reference_wavefunction().frequencies() #TEST
compare_vectors(a2_freqs, fd_freqs, 3, "C4NH4 frequencies (A2) by gradients (5-pt.) to 0.001 cm^-1") #TEST
del fd_freqs #TEST

# Compute B2 frequencies by 5-pt formula.

frequencies('scf', dertype=1, irrep=4)

fd_freqs = PsiMod.reference_wavefunction().frequencies() #TEST
compare_vectors(b2_freqs, fd_freqs, 3, "C4NH4 frequencies (B2) by gradients (5-pt.) to 0.001 cm^-1") #TEST
del fd_freqs #TEST

clean()
--------------------------------------------------------------------------

  Memory set to 250.000 MiB by Python script.

-------------------------------------------------------------

  Using finite-differences of gradients to determine vibrational frequencies and 
  normal modes.  Resulting frequencies are only valid at stationary points.
	Generating geometries for use with 3-point formula.
	Displacement size will be 5.00e-03.
	Number of atoms is 9.
	Number of irreps is 4.
	Number of SALCS is 21.
	Index of salcs per irrep:
	 1 :  0  1  2  3  4  5  6 
	 2 :  7  8  9 
	 3 :  10  11  12  13  14  15 
	 4 :  16  17  18  19  20 
	Number of SALC's per irrep:
		 Irrep 1: 7
		 Irrep 2: 3
		 Irrep 3: 6
		 Irrep 4: 5
	Number of geometries (including reference) is 29.
	Number of displacements per irrep:
	  Irrep 1: 14
	  Irrep 2: 3
	  Irrep 3: 6
	  Irrep 4: 5

-------------------------------------------------------------

  //>>>>>>>>>>>>>>>>>>>>>>>>>>>>>>>>>>>//
  //    Loading displacement 1 of 29   //
  //<<<<<<<<<<<<<<<<<<<<<<<<<<<<<<<<<<<//

*** tstart() called on lawn-143-215-103-161.lawn.gatech.edu
*** at Fri Apr 27 13:58:34 2012


         ---------------------------------------------------------
                                   SCF
            by Justin Turney, Rob Parrish, and Andy Simmonett
                              RHF Reference
                        1 Threads,    250 MiB Core
         ---------------------------------------------------------

  ==> Geometry <==

    Molecular point group: c2v

    Geometry (in Angstrom), charge = -1, multiplicity = 1:

       Center              X                  Y                   Z       
    ------------   -----------------  -----------------  -----------------
           C          0.000000000000     0.000000000000     1.119214887255
           N          0.000000000000     0.000000000000     2.310240718535
           C          0.000000000000     0.000000000000    -0.230931631437
           C         -0.781617287494    -0.000000000000    -1.483715957741
           C          0.781617287494     0.000000000000    -1.483715957741
           H         -1.274488047821    -0.899961499592    -1.835806712232
           H         -1.274488047821     0.899961499592    -1.835806712232
           H          1.274488047821     0.899961499592    -1.835806712232
           H          1.274488047821    -0.899961499592    -1.835806712232

  Running in c2v symmetry.

  Nuclear repulsion =  136.459886939425076

  Charge       = -1
  Multiplicity = 1
  Electrons    = 36
  Nalpha       = 18
  Nbeta        = 18

  ==> Algorithm <==

  SCF Algorithm Type is PK.
  DIIS enabled.
  MOM disabled.
  Fractional occupation disabled.
  Guess Type is CORE.
  Energy threshold   = 1.00e-08
  Density threshold  = 1.00e-11
  Integral threshold = 0.00e+00

  ==> Primary Basis <==

  Basis Set: DZ
    Number of shells: 38
    Number of basis function: 58
    Number of Cartesian functions: 58
    Spherical Harmonics?: true
    Max angular momentum: 1

  ==> Pre-Iterations <==

  Minimum eigenvalue in the overlap matrix is 2.5819827193E-03.
  Using Symmetric Orthogonalization.
  SCF Guess: Core (One-Electron) Hamiltonian.

  Initial RHF energy:  -161.69528917074814

   -------------------------------------------------------
    Irrep   Nso     Nmo     Nalpha   Nbeta   Ndocc  Nsocc
   -------------------------------------------------------
     A1        28      28      10      10      10       0
     A2         4       4       1       1       1       0
     B1        16      16       4       4       4       0
     B2        10      10       3       3       3       0
   -------------------------------------------------------
    Total      58      58      18      18      18       0
   -------------------------------------------------------

  ==> Integral Setup <==

 MINTS: Wrapper to libmints.
   by Justin Turney

   Calculation information:
      Number of atoms:                   9
      Number of AO shells:              38
      Number of SO shells:              26
      Number of primitives:             86
      Number of atomic orbitals:        58
      Number of basis functions:        58

      Number of irreps:                  4
      Number of functions per irrep: [  28    4   16   10 ]

      Overlap, kinetic, potential, dipole, and quadrupole integrals
        stored in file 35.

      Computing two-electron integrals...done
      Computed 376425 non-zero two-electron integrals.
        Stored in file 33.

  ==> Iterations <==

                        Total Energy        Delta E     Density RMS

   @RHF iter   1:  -179.43718367871020   -1.77419e+01   0.00000e+00 
	Occupation by irrep:
	         A1    A2    B1    B2 
	DOCC [    10,    1,    5,    2 ]

   @RHF iter   2:  -187.13853790595391   -7.70135e+00   1.01520e+00 DIIS
	Occupation by irrep:
	         A1    A2    B1    B2 
	DOCC [    10,    1,    4,    3 ]

   @RHF iter   3:  -197.69296240696485   -1.05544e+01   1.00251e+00 DIIS
   @RHF iter   4:  -207.34080569258748   -9.64784e+00   1.19840e-01 DIIS
   @RHF iter   5:  -207.87341021562605   -5.32605e-01   4.93792e-02 DIIS
   @RHF iter   6:  -208.02411204611684   -1.50702e-01   1.32388e-02 DIIS
   @RHF iter   7:  -208.06791250294674   -4.38005e-02   8.13878e-03 DIIS
   @RHF iter   8:  -208.06951444152475   -1.60194e-03   1.94498e-03 DIIS
   @RHF iter   9:  -208.06976915031908   -2.54709e-04   7.17527e-04 DIIS
   @RHF iter  10:  -208.06980469985916   -3.55495e-05   3.78955e-04 DIIS
   @RHF iter  11:  -208.06981584105404   -1.11412e-05   1.58763e-04 DIIS
   @RHF iter  12:  -208.06981873753631   -2.89648e-06   9.09854e-05 DIIS
   @RHF iter  13:  -208.06981918219964   -4.44663e-07   3.58245e-05 DIIS
   @RHF iter  14:  -208.06981921510305   -3.29034e-08   1.16938e-05 DIIS
   @RHF iter  15:  -208.06981921551932   -4.16264e-10   1.43141e-06 DIIS
   @RHF iter  16:  -208.06981921553097   -1.16529e-11   2.63113e-07 DIIS
   @RHF iter  17:  -208.06981921553148   -5.11591e-13   4.70396e-08 DIIS
   @RHF iter  18:  -208.06981921553154   -5.68434e-14   8.44050e-09 DIIS
   @RHF iter  19:  -208.06981921553160   -5.68434e-14   2.32887e-09 DIIS
   @RHF iter  20:  -208.06981921553160    0.00000e+00   4.24338e-10 DIIS
   @RHF iter  21:  -208.06981921553148    1.13687e-13   8.41976e-11 DIIS
   @RHF iter  22:  -208.06981921553160   -1.13687e-13   2.12691e-11 DIIS

  ==> Post-Iterations <==

	Orbital Energies (a.u.)
	-----------------------

	Doubly Occupied:                                                      

	   1A1   -15.334323     2A1   -11.080417     3A1   -11.069761  
	   1B1   -11.069249     4A1   -11.010643     5A1    -0.988069  
	   6A1    -0.939760     7A1    -0.682935     2B1    -0.653987  
	   8A1    -0.505650     1B2    -0.464914     1A2    -0.343448  
	   9A1    -0.318004     3B1    -0.304017     2B2    -0.279381  
	  10A1    -0.250160     4B1    -0.188258     3B2    -0.054870  

	Virtual:                                                              

	   5B1     0.376933     6B1     0.398973    11A1     0.404351  
	  12A1     0.457137     4B2     0.458325     7B1     0.519440  
	  13A1     0.524812     8B1     0.563947    14A1     0.593232  
	   2A2     0.611588     5B2     0.619919     6B2     0.628094  
	  15A1     0.662681     3A2     0.674494     9B1     0.713472  
	   7B2     0.723763    16A1     0.783021    17A1     0.814085  
	  10B1     0.819409     8B2     0.861651    11B1     0.887929  
	  12B1     0.989258    18A1     1.032849     9B2     1.096356  
	  19A1     1.122408    13B1     1.122986    20A1     1.334858  
	  14B1     1.409544    21A1     1.540436    22A1     1.580688  
	  10B2     1.609073    23A1     1.625367     4A2     1.673265  
	  15B1     1.736980    24A1     1.871272    25A1    23.959317  
	  26A1    24.162702    16B1    24.202013    27A1    24.347350  
	  28A1    33.411032  

	Final Occupation by Irrep:
	         A1    A2    B1    B2 
	DOCC [    10,    1,    4,    3 ]

  Energy converged.

  @RHF Final Energy:  -208.06981921553160

   => Energetics <=

    Nuclear Repulsion Energy =        136.4598869394250755
    One-Electron Energy =            -557.9837196357361790
    Two-Electron Energy =             213.4540134807795653
    DFT Functional Energy =             0.0000000000000000
    Empirical Dispersion Energy =       0.0000000000000000
    Total Energy =                   -208.0698192155315382

  ==> Properties <==

  Nuclear Dipole Moment: (a.u.)
     X:     0.0000      Y:     0.0000      Z:    -6.8908

  Electronic Dipole Moment: (a.u.)
     X:     0.0000      Y:     0.0000      Z:     4.7716

  Dipole Moment: (a.u.)
     X:     0.0000      Y:     0.0000      Z:    -2.1192     Total:     2.1192

  Dipole Moment: (Debye)
     X:     0.0000      Y:     0.0000      Z:    -5.3864     Total:     5.3864


  Saving occupied orbitals to File 180.

*** tstop() called on lawn-143-215-103-161.lawn.gatech.edu at Fri Apr 27 13:58:35 2012
Module time:
	user time   =       1.05 seconds =       0.02 minutes
	system time =       0.03 seconds =       0.00 minutes
	total time  =          1 seconds =       0.02 minutes
Total time:
	user time   =       1.05 seconds =       0.02 minutes
	system time =       0.03 seconds =       0.00 minutes
	total time  =          1 seconds =       0.02 minutes

*** tstart() called on lawn-143-215-103-161.lawn.gatech.edu
*** at Fri Apr 27 13:58:35 2012

 DERIV: Derivative code.
   by Justin Turney

  Cartesian Displacement SALCs
  By SALC:
  Number of SALCs: 8, nirreps: 1
  Project out translations: False
  Project out rotations: False
	irrep = 0, ncomponent = 1
		0: atom 0, direction z, coef 1.000000
	irrep = 0, ncomponent = 1
		0: atom 1, direction z, coef 1.000000
	irrep = 0, ncomponent = 1
		0: atom 2, direction z, coef 1.000000
	irrep = 0, ncomponent = 2
		0: atom 3, direction x, coef 0.707107
		1: atom 4, direction x, coef -0.707107
	irrep = 0, ncomponent = 2
		0: atom 3, direction z, coef 0.707107
		1: atom 4, direction z, coef 0.707107
	irrep = 0, ncomponent = 4
		0: atom 5, direction x, coef 0.500000
		1: atom 6, direction x, coef 0.500000
		2: atom 7, direction x, coef -0.500000
		3: atom 8, direction x, coef -0.500000
	irrep = 0, ncomponent = 4
		0: atom 5, direction y, coef 0.500000
		1: atom 6, direction y, coef -0.500000
		2: atom 7, direction y, coef -0.500000
		3: atom 8, direction y, coef 0.500000
	irrep = 0, ncomponent = 4
		0: atom 5, direction z, coef 0.500000
		1: atom 6, direction z, coef 0.500000
		2: atom 7, direction z, coef 0.500000
		3: atom 8, direction z, coef 0.500000

  By Atomic Center:
  Number of atomic centers: 9
   Atomic Center 0:
	x component, size = 0
	y component, size = 0
	z component, size = 1
		0: salc 0, irrep 0, coef 1.000000
   Atomic Center 1:
	x component, size = 0
	y component, size = 0
	z component, size = 1
		0: salc 1, irrep 0, coef 1.000000
   Atomic Center 2:
	x component, size = 0
	y component, size = 0
	z component, size = 1
		0: salc 2, irrep 0, coef 1.000000
   Atomic Center 3:
	x component, size = 1
		0: salc 3, irrep 0, coef 0.707107
	y component, size = 0
	z component, size = 1
		0: salc 4, irrep 0, coef 0.707107
   Atomic Center 4:
	x component, size = 1
		0: salc 3, irrep 0, coef -0.707107
	y component, size = 0
	z component, size = 1
		0: salc 4, irrep 0, coef 0.707107
   Atomic Center 5:
	x component, size = 1
		0: salc 5, irrep 0, coef 0.500000
	y component, size = 1
		0: salc 6, irrep 0, coef 0.500000
	z component, size = 1
		0: salc 7, irrep 0, coef 0.500000
   Atomic Center 6:
	x component, size = 1
		0: salc 5, irrep 0, coef 0.500000
	y component, size = 1
		0: salc 6, irrep 0, coef -0.500000
	z component, size = 1
		0: salc 7, irrep 0, coef 0.500000
   Atomic Center 7:
	x component, size = 1
		0: salc 5, irrep 0, coef -0.500000
	y component, size = 1
		0: salc 6, irrep 0, coef -0.500000
	z component, size = 1
		0: salc 7, irrep 0, coef 0.500000
   Atomic Center 8:
	x component, size = 1
		0: salc 5, irrep 0, coef -0.500000
	y component, size = 1
		0: salc 6, irrep 0, coef 0.500000
	z component, size = 1
		0: salc 7, irrep 0, coef 0.500000

    Molecular point group: c2v

    Geometry (in Bohr), charge = -1, multiplicity = 1:

       Center              X                  Y                   Z       
    ------------   -----------------  -----------------  -----------------
           C          0.000000000000     0.000000000000     2.115009620760
           N          0.000000000000     0.000000000000     4.365722259072
           C          0.000000000000     0.000000000000    -0.436397538837
           C         -1.477042614093    -0.000000000000    -2.803816819123
           C          1.477042614093     0.000000000000    -2.803816819123
           H         -2.408433370018    -1.700680764370    -3.469171919032
           H         -2.408433370018     1.700680764370    -3.469171919032
           H          2.408433370018     1.700680764370    -3.469171919032
           H          2.408433370018    -1.700680764370    -3.469171919032


  -Nuclear Repulsion Energy 1st Derivatives:
     Atom            X                  Y                   Z
    ------   -----------------  -----------------  -----------------
       1        0.000000000000     0.000000000000    -0.385795470844
       2        0.000000000000     0.000000000000   -12.021691231721
       3        0.000000000000     0.000000000000    -1.455613045756
       4        6.415221039817     0.000000000000     4.969854420847
       5       -6.415221039817     0.000000000000     4.969854420847
       6        1.286951216811     1.612073803516     0.980847726657
       7        1.286951216811    -1.612073803516     0.980847726657
       8       -1.286951216811    -1.612073803516     0.980847726657
       9       -1.286951216811     1.612073803516     0.980847726657


  -One-electron contribution to gradient:
     Atom            X                  Y                   Z
    ------   -----------------  -----------------  -----------------
       1        0.000000000000     0.000000000000    -4.398036058623
       2        0.000000000000     0.000000000000    31.832626055958
       3        0.000000000000     0.000000000000    -0.258932220869
       4      -11.308661251931     0.000000000000    -9.109523526773
       5       11.308661251931     0.000000000000    -9.109523526773
       6       -2.817471968811    -4.253548616752    -2.239152680707
       7       -2.817471968811     4.253548616752    -2.239152680707
       8        2.817471968811     4.253548616752    -2.239152680707
       9        2.817471968811    -4.253548616752    -2.239152680707


  -Lagrangian contribution to gradient:
     Atom            X                  Y                   Z
    ------   -----------------  -----------------  -----------------
       1        0.000000000000     0.000000000000     0.221605041543
       2        0.000000000000     0.000000000000    -0.571974795302
       3        0.000000000000     0.000000000000     0.075938418798
       4        0.068816338441     0.000000000000     0.039433797983
       5       -0.068816338441     0.000000000000     0.039433797983
       6        0.060356271181     0.122676879594     0.048890934749
       7        0.060356271181    -0.122676879594     0.048890934749
       8       -0.060356271181    -0.122676879594     0.048890934749
       9       -0.060356271181     0.122676879594     0.048890934749


  -Two-electron contribution to gradient:
     Atom            X                  Y                   Z
    ------   -----------------  -----------------  -----------------
       1        0.000000000000     0.000000000000     4.559840473966
       2        0.000000000000     0.000000000000   -19.237375002246
       3        0.000000000000     0.000000000000     1.639363290614
       4        4.824614884390     0.000000000000     4.100291112112
       5       -4.824614884390     0.000000000000     4.100291112112
       6        1.470157436263     2.518791709610     1.209397253452
       7        1.470157436263    -2.518791709610     1.209397253452
       8       -1.470157436263    -2.518791709610     1.209397253452
       9       -1.470157436263     2.518791709610     1.209397253452


  -Total gradient:
     Atom            X                  Y                   Z
    ------   -----------------  -----------------  -----------------
       1        0.000000000000     0.000000000000    -0.002386013958
       2        0.000000000000     0.000000000000     0.001585026689
       3        0.000000000000     0.000000000000     0.000756442786
       4       -0.000008989282     0.000000000000     0.000055804169
       5        0.000008989282     0.000000000000     0.000055804169
       6       -0.000007044556    -0.000006224032    -0.000016765850
       7       -0.000007044556     0.000006224032    -0.000016765850
       8        0.000007044556     0.000006224032    -0.000016765850
       9        0.000007044556    -0.000006224032    -0.000016765850


*** tstop() called on lawn-143-215-103-161.lawn.gatech.edu at Fri Apr 27 13:58:38 2012
Module time:
	user time   =       3.14 seconds =       0.05 minutes
	system time =       0.01 seconds =       0.00 minutes
	total time  =          3 seconds =       0.05 minutes
Total time:
	user time   =       4.19 seconds =       0.07 minutes
	system time =       0.04 seconds =       0.00 minutes
	total time  =          4 seconds =       0.07 minutes

  //>>>>>>>>>>>>>>>>>>>>>>>>>>>>>>>>>>>//
  //    Loading displacement 2 of 29   //
  //<<<<<<<<<<<<<<<<<<<<<<<<<<<<<<<<<<<//

*** tstart() called on lawn-143-215-103-161.lawn.gatech.edu
*** at Fri Apr 27 13:58:38 2012


         ---------------------------------------------------------
                                   SCF
            by Justin Turney, Rob Parrish, and Andy Simmonett
                              RHF Reference
                        1 Threads,    250 MiB Core
         ---------------------------------------------------------

  ==> Geometry <==

    Molecular point group: c2v

    Geometry (in Angstrom), charge = -1, multiplicity = 1:

       Center              X                  Y                   Z       
    ------------   -----------------  -----------------  -----------------
           C          0.000000000000     0.000000000000     1.120596736093
           N          0.000000000000     0.000000000000     2.309933836363
           C          0.000000000000     0.000000000000    -0.231238513609
           C         -0.781617287494    -0.000000000000    -1.484022839913
           C          0.781617287494     0.000000000000    -1.484022839913
           H         -1.274488047821    -0.899961499592    -1.836113594404
           H         -1.274488047821     0.899961499592    -1.836113594404
           H          1.274488047821     0.899961499592    -1.836113594404
           H          1.274488047821    -0.899961499592    -1.836113594404

  Running in c2v symmetry.

  Nuclear repulsion =  136.458720780591250

  Charge       = -1
  Multiplicity = 1
  Electrons    = 36
  Nalpha       = 18
  Nbeta        = 18

  ==> Algorithm <==

  SCF Algorithm Type is PK.
  DIIS enabled.
  MOM disabled.
  Fractional occupation disabled.
  Guess Type is CORE.
  Energy threshold   = 1.00e-08
  Density threshold  = 1.00e-11
  Integral threshold = 0.00e+00

  ==> Primary Basis <==

  Basis Set: DZ
    Number of shells: 38
    Number of basis function: 58
    Number of Cartesian functions: 58
    Spherical Harmonics?: true
    Max angular momentum: 1

  ==> Pre-Iterations <==

  Minimum eigenvalue in the overlap matrix is 2.5836044155E-03.
  Using Symmetric Orthogonalization.
  SCF Guess: Core (One-Electron) Hamiltonian.

  Initial RHF energy:  -161.68356972154623

   -------------------------------------------------------
    Irrep   Nso     Nmo     Nalpha   Nbeta   Ndocc  Nsocc
   -------------------------------------------------------
     A1        28      28      10      10      10       0
     A2         4       4       1       1       1       0
     B1        16      16       4       4       4       0
     B2        10      10       3       3       3       0
   -------------------------------------------------------
    Total      58      58      18      18      18       0
   -------------------------------------------------------

  ==> Integral Setup <==

 MINTS: Wrapper to libmints.
   by Justin Turney

   Calculation information:
      Number of atoms:                   9
      Number of AO shells:              38
      Number of SO shells:              26
      Number of primitives:             86
      Number of atomic orbitals:        58
      Number of basis functions:        58

      Number of irreps:                  4
      Number of functions per irrep: [  28    4   16   10 ]

      Overlap, kinetic, potential, dipole, and quadrupole integrals
        stored in file 35.

      Computing two-electron integrals...done
      Computed 376407 non-zero two-electron integrals.
        Stored in file 33.

  ==> Iterations <==

                        Total Energy        Delta E     Density RMS

   @RHF iter   1:  -179.45344454887760   -1.77699e+01   0.00000e+00 
	Occupation by irrep:
	         A1    A2    B1    B2 
	DOCC [    10,    1,    5,    2 ]

   @RHF iter   2:  -187.16121172261734   -7.70777e+00   1.01570e+00 DIIS
	Occupation by irrep:
	         A1    A2    B1    B2 
	DOCC [    10,    1,    4,    3 ]

   @RHF iter   3:  -197.71082277789873   -1.05496e+01   1.00317e+00 DIIS
   @RHF iter   4:  -207.34428024206392   -9.63346e+00   1.19656e-01 DIIS
   @RHF iter   5:  -207.87359020280752   -5.29310e-01   4.91796e-02 DIIS
   @RHF iter   6:  -208.02406419370072   -1.50474e-01   1.31802e-02 DIIS
   @RHF iter   7:  -208.06791887374442   -4.38547e-02   8.14078e-03 DIIS
   @RHF iter   8:  -208.06951710239679   -1.59823e-03   1.93859e-03 DIIS
   @RHF iter   9:  -208.06976947916093   -2.52377e-04   7.16560e-04 DIIS
   @RHF iter  10:  -208.06980483661130   -3.53575e-05   3.77884e-04 DIIS
   @RHF iter  11:  -208.06981589763745   -1.10610e-05   1.58582e-04 DIIS
   @RHF iter  12:  -208.06981874525025   -2.84761e-06   9.01562e-05 DIIS
   @RHF iter  13:  -208.06981918052162   -4.35271e-07   3.54122e-05 DIIS
   @RHF iter  14:  -208.06981921229925   -3.17776e-08   1.14748e-05 DIIS
   @RHF iter  15:  -208.06981921269897   -3.99723e-10   1.39862e-06 DIIS
   @RHF iter  16:  -208.06981921271023   -1.12550e-11   2.57608e-07 DIIS
   @RHF iter  17:  -208.06981921271051   -2.84217e-13   4.62074e-08 DIIS
   @RHF iter  18:  -208.06981921271051    0.00000e+00   8.34071e-09 DIIS
   @RHF iter  19:  -208.06981921271068   -1.70530e-13   2.27953e-09 DIIS
   @RHF iter  20:  -208.06981921271068    0.00000e+00   4.13772e-10 DIIS
   @RHF iter  21:  -208.06981921271080   -1.13687e-13   8.01673e-11 DIIS
   @RHF iter  22:  -208.06981921271046    3.41061e-13   2.06247e-11 DIIS

  ==> Post-Iterations <==

	Orbital Energies (a.u.)
	-----------------------

	Doubly Occupied:                                                      

	   1A1   -15.334389     2A1   -11.080469     3A1   -11.069620  
	   1B1   -11.069109     4A1   -11.010493     5A1    -0.989096  
	   6A1    -0.939672     7A1    -0.682171     2B1    -0.653811  
	   8A1    -0.505389     1B2    -0.464730     1A2    -0.343280  
	   9A1    -0.318254     3B1    -0.303972     2B2    -0.279780  
	  10A1    -0.250018     4B1    -0.188849     3B2    -0.054680  

	Virtual:                                                              

	   5B1     0.377156     6B1     0.399241    11A1     0.404378  
	  12A1     0.457290     4B2     0.458539     7B1     0.519541  
	  13A1     0.524815     8B1     0.564085    14A1     0.593202  
	   2A2     0.611724     5B2     0.620094     6B2     0.628144  
	  15A1     0.662719     3A2     0.674641     9B1     0.713232  
	   7B2     0.723733    16A1     0.782422    17A1     0.814439  
	  10B1     0.819359     8B2     0.861466    11B1     0.888026  
	  12B1     0.989331    18A1     1.033072     9B2     1.096468  
	  19A1     1.122257    13B1     1.123035    20A1     1.334976  
	  14B1     1.409679    21A1     1.539836    22A1     1.581467  
	  10B2     1.609231    23A1     1.626155     4A2     1.673428  
	  15B1     1.737028    24A1     1.871314    25A1    23.959681  
	  26A1    24.163015    16B1    24.202135    27A1    24.346572  
	  28A1    33.411324  

	Final Occupation by Irrep:
	         A1    A2    B1    B2 
	DOCC [    10,    1,    4,    3 ]

  Energy converged.

  @RHF Final Energy:  -208.06981921271046

   => Energetics <=

    Nuclear Repulsion Energy =        136.4587207805912499
    One-Electron Energy =            -557.9815179421173070
    Two-Electron Energy =             213.4529779488155441
    DFT Functional Energy =             0.0000000000000000
    Empirical Dispersion Energy =       0.0000000000000000
    Total Energy =                   -208.0698192127105131

  ==> Properties <==

  Nuclear Dipole Moment: (a.u.)
     X:     0.0000      Y:     0.0000      Z:    -6.8919

  Electronic Dipole Moment: (a.u.)
     X:     0.0000      Y:     0.0000      Z:     4.7813

  Dipole Moment: (a.u.)
     X:     0.0000      Y:     0.0000      Z:    -2.1106     Total:     2.1106

  Dipole Moment: (Debye)
     X:     0.0000      Y:     0.0000      Z:    -5.3646     Total:     5.3646


  Saving occupied orbitals to File 180.

*** tstop() called on lawn-143-215-103-161.lawn.gatech.edu at Fri Apr 27 13:58:39 2012
Module time:
	user time   =       1.05 seconds =       0.02 minutes
	system time =       0.03 seconds =       0.00 minutes
	total time  =          1 seconds =       0.02 minutes
Total time:
	user time   =       5.24 seconds =       0.09 minutes
	system time =       0.07 seconds =       0.00 minutes
	total time  =          5 seconds =       0.08 minutes

*** tstart() called on lawn-143-215-103-161.lawn.gatech.edu
*** at Fri Apr 27 13:58:39 2012

 DERIV: Derivative code.
   by Justin Turney

  Cartesian Displacement SALCs
  By SALC:
  Number of SALCs: 8, nirreps: 1
  Project out translations: False
  Project out rotations: False
	irrep = 0, ncomponent = 1
		0: atom 0, direction z, coef 1.000000
	irrep = 0, ncomponent = 1
		0: atom 1, direction z, coef 1.000000
	irrep = 0, ncomponent = 1
		0: atom 2, direction z, coef 1.000000
	irrep = 0, ncomponent = 2
		0: atom 3, direction x, coef 0.707107
		1: atom 4, direction x, coef -0.707107
	irrep = 0, ncomponent = 2
		0: atom 3, direction z, coef 0.707107
		1: atom 4, direction z, coef 0.707107
	irrep = 0, ncomponent = 4
		0: atom 5, direction x, coef 0.500000
		1: atom 6, direction x, coef 0.500000
		2: atom 7, direction x, coef -0.500000
		3: atom 8, direction x, coef -0.500000
	irrep = 0, ncomponent = 4
		0: atom 5, direction y, coef 0.500000
		1: atom 6, direction y, coef -0.500000
		2: atom 7, direction y, coef -0.500000
		3: atom 8, direction y, coef 0.500000
	irrep = 0, ncomponent = 4
		0: atom 5, direction z, coef 0.500000
		1: atom 6, direction z, coef 0.500000
		2: atom 7, direction z, coef 0.500000
		3: atom 8, direction z, coef 0.500000

  By Atomic Center:
  Number of atomic centers: 9
   Atomic Center 0:
	x component, size = 0
	y component, size = 0
	z component, size = 1
		0: salc 0, irrep 0, coef 1.000000
   Atomic Center 1:
	x component, size = 0
	y component, size = 0
	z component, size = 1
		0: salc 1, irrep 0, coef 1.000000
   Atomic Center 2:
	x component, size = 0
	y component, size = 0
	z component, size = 1
		0: salc 2, irrep 0, coef 1.000000
   Atomic Center 3:
	x component, size = 1
		0: salc 3, irrep 0, coef 0.707107
	y component, size = 0
	z component, size = 1
		0: salc 4, irrep 0, coef 0.707107
   Atomic Center 4:
	x component, size = 1
		0: salc 3, irrep 0, coef -0.707107
	y component, size = 0
	z component, size = 1
		0: salc 4, irrep 0, coef 0.707107
   Atomic Center 5:
	x component, size = 1
		0: salc 5, irrep 0, coef 0.500000
	y component, size = 1
		0: salc 6, irrep 0, coef 0.500000
	z component, size = 1
		0: salc 7, irrep 0, coef 0.500000
   Atomic Center 6:
	x component, size = 1
		0: salc 5, irrep 0, coef 0.500000
	y component, size = 1
		0: salc 6, irrep 0, coef -0.500000
	z component, size = 1
		0: salc 7, irrep 0, coef 0.500000
   Atomic Center 7:
	x component, size = 1
		0: salc 5, irrep 0, coef -0.500000
	y component, size = 1
		0: salc 6, irrep 0, coef -0.500000
	z component, size = 1
		0: salc 7, irrep 0, coef 0.500000
   Atomic Center 8:
	x component, size = 1
		0: salc 5, irrep 0, coef -0.500000
	y component, size = 1
		0: salc 6, irrep 0, coef 0.500000
	z component, size = 1
		0: salc 7, irrep 0, coef 0.500000

    Molecular point group: c2v

    Geometry (in Bohr), charge = -1, multiplicity = 1:

       Center              X                  Y                   Z       
    ------------   -----------------  -----------------  -----------------
           C          0.000000000000     0.000000000000     2.117620936622
           N          0.000000000000     0.000000000000     4.365142335813
           C          0.000000000000     0.000000000000    -0.436977462096
           C         -1.477042614093    -0.000000000000    -2.804396742382
           C          1.477042614093     0.000000000000    -2.804396742382
           H         -2.408433370018    -1.700680764370    -3.469751842291
           H         -2.408433370018     1.700680764370    -3.469751842291
           H          2.408433370018     1.700680764370    -3.469751842291
           H          2.408433370018    -1.700680764370    -3.469751842291


  -Nuclear Repulsion Energy 1st Derivatives:
     Atom            X                  Y                   Z
    ------   -----------------  -----------------  -----------------
       1        0.000000000000     0.000000000000    -0.345047479826
       2        0.000000000000     0.000000000000   -12.045252730604
       3        0.000000000000     0.000000000000    -1.469421285545
       4        6.414521053927     0.000000000000     4.968369903546
       5       -6.414521053927     0.000000000000     4.968369903546
       6        1.286874341414     1.612019519054     0.980745422221
       7        1.286874341414    -1.612019519054     0.980745422221
       8       -1.286874341414    -1.612019519054     0.980745422221
       9       -1.286874341414     1.612019519054     0.980745422221


  -One-electron contribution to gradient:
     Atom            X                  Y                   Z
    ------   -----------------  -----------------  -----------------
       1        0.000000000000     0.000000000000    -4.465691009985
       2        0.000000000000     0.000000000000    31.874363472683
       3        0.000000000000     0.000000000000    -0.238602843482
       4      -11.307239699843     0.000000000000    -9.109931858431
       5       11.307239699843     0.000000000000    -9.109931858431
       6       -2.816713271143    -4.252753196575    -2.237551475566
       7       -2.816713271143     4.252753196575    -2.237551475566
       8        2.816713271143     4.252753196575    -2.237551475566
       9        2.816713271143    -4.252753196575    -2.237551475566


  -Lagrangian contribution to gradient:
     Atom            X                  Y                   Z
    ------   -----------------  -----------------  -----------------
       1        0.000000000000     0.000000000000     0.223168792799
       2        0.000000000000     0.000000000000    -0.572901641974
       3        0.000000000000     0.000000000000     0.075280969828
       4        0.068860274440     0.000000000000     0.039475914493
       5       -0.068860274440     0.000000000000     0.039475914493
       6        0.060343056527     0.122636518357     0.048875012591
       7        0.060343056527    -0.122636518357     0.048875012591
       8       -0.060343056527    -0.122636518357     0.048875012591
       9       -0.060343056527     0.122636518357     0.048875012591


  -Two-electron contribution to gradient:
     Atom            X                  Y                   Z
    ------   -----------------  -----------------  -----------------
       1        0.000000000000     0.000000000000     4.589961299146
       2        0.000000000000     0.000000000000   -19.257803573210
       3        0.000000000000     0.000000000000     1.631990668165
       4        4.823867338052     0.000000000000     4.102030287038
       5       -4.823867338052     0.000000000000     4.102030287038
       6        1.469502854952     2.518103282915     1.207947758050
       7        1.469502854952    -2.518103282915     1.207947758050
       8       -1.469502854952    -2.518103282915     1.207947758050
       9       -1.469502854952     2.518103282915     1.207947758050


  -Total gradient:
     Atom            X                  Y                   Z
    ------   -----------------  -----------------  -----------------
       1        0.000000000000     0.000000000000     0.002391602134
       2        0.000000000000     0.000000000000    -0.001594473106
       3        0.000000000000     0.000000000000    -0.000752491034
       4        0.000008966577     0.000000000000    -0.000055753354
       5       -0.000008966577     0.000000000000    -0.000055753354
       6        0.000006981749     0.000006123751     0.000016717295
       7        0.000006981749    -0.000006123751     0.000016717295
       8       -0.000006981749    -0.000006123751     0.000016717295
       9       -0.000006981749     0.000006123751     0.000016717295


*** tstop() called on lawn-143-215-103-161.lawn.gatech.edu at Fri Apr 27 13:58:42 2012
Module time:
	user time   =       3.14 seconds =       0.05 minutes
	system time =       0.01 seconds =       0.00 minutes
	total time  =          3 seconds =       0.05 minutes
Total time:
	user time   =       8.38 seconds =       0.14 minutes
	system time =       0.08 seconds =       0.00 minutes
	total time  =          8 seconds =       0.13 minutes

  //>>>>>>>>>>>>>>>>>>>>>>>>>>>>>>>>>>>//
  //    Loading displacement 3 of 29   //
  //<<<<<<<<<<<<<<<<<<<<<<<<<<<<<<<<<<<//

*** tstart() called on lawn-143-215-103-161.lawn.gatech.edu
*** at Fri Apr 27 13:58:42 2012


         ---------------------------------------------------------
                                   SCF
            by Justin Turney, Rob Parrish, and Andy Simmonett
                              RHF Reference
                        1 Threads,    250 MiB Core
         ---------------------------------------------------------

  ==> Geometry <==

    Molecular point group: c2v

    Geometry (in Angstrom), charge = -1, multiplicity = 1:

       Center              X                  Y                   Z       
    ------------   -----------------  -----------------  -----------------
           C          0.000000000000     0.000000000000     1.119905811674
           N          0.000000000000     0.000000000000     2.309478688267
           C          0.000000000000     0.000000000000    -0.230872186123
           C         -0.781617287494    -0.000000000000    -1.483656512427
           C          0.781617287494     0.000000000000    -1.483656512427
           H         -1.274488047821    -0.899961499592    -1.835747266918
           H         -1.274488047821     0.899961499592    -1.835747266918
           H          1.274488047821     0.899961499592    -1.835747266918
           H          1.274488047821    -0.899961499592    -1.835747266918

  Running in c2v symmetry.

  Nuclear repulsion =  136.478121736921111

  Charge       = -1
  Multiplicity = 1
  Electrons    = 36
  Nalpha       = 18
  Nbeta        = 18

  ==> Algorithm <==

  SCF Algorithm Type is PK.
  DIIS enabled.
  MOM disabled.
  Fractional occupation disabled.
  Guess Type is CORE.
  Energy threshold   = 1.00e-08
  Density threshold  = 1.00e-11
  Integral threshold = 0.00e+00

  ==> Primary Basis <==

  Basis Set: DZ
    Number of shells: 38
    Number of basis function: 58
    Number of Cartesian functions: 58
    Spherical Harmonics?: true
    Max angular momentum: 1

  ==> Pre-Iterations <==

  Minimum eigenvalue in the overlap matrix is 2.5797204713E-03.
  Using Symmetric Orthogonalization.
  SCF Guess: Core (One-Electron) Hamiltonian.

  Initial RHF energy:  -161.69022167862644

   -------------------------------------------------------
    Irrep   Nso     Nmo     Nalpha   Nbeta   Ndocc  Nsocc
   -------------------------------------------------------
     A1        28      28      10      10      10       0
     A2         4       4       1       1       1       0
     B1        16      16       4       4       4       0
     B2        10      10       3       3       3       0
   -------------------------------------------------------
    Total      58      58      18      18      18       0
   -------------------------------------------------------

  ==> Integral Setup <==

 MINTS: Wrapper to libmints.
   by Justin Turney

   Calculation information:
      Number of atoms:                   9
      Number of AO shells:              38
      Number of SO shells:              26
      Number of primitives:             86
      Number of atomic orbitals:        58
      Number of basis functions:        58

      Number of irreps:                  4
      Number of functions per irrep: [  28    4   16   10 ]

      Overlap, kinetic, potential, dipole, and quadrupole integrals
        stored in file 35.

      Computing two-electron integrals...done
      Computed 376434 non-zero two-electron integrals.
        Stored in file 33.

  ==> Iterations <==

                        Total Energy        Delta E     Density RMS

   @RHF iter   1:  -179.44333415517443   -1.77531e+01   0.00000e+00 
	Occupation by irrep:
	         A1    A2    B1    B2 
	DOCC [    10,    1,    5,    2 ]

   @RHF iter   2:  -187.15314992745161   -7.70982e+00   1.01600e+00 DIIS
	Occupation by irrep:
	         A1    A2    B1    B2 
	DOCC [    10,    1,    4,    3 ]

   @RHF iter   3:  -197.70749346614181   -1.05543e+01   1.00344e+00 DIIS
   @RHF iter   4:  -207.34234163033219   -9.63485e+00   1.19782e-01 DIIS
   @RHF iter   5:  -207.87360763079133   -5.31266e-01   4.92727e-02 DIIS
   @RHF iter   6:  -208.02411576931931   -1.50508e-01   1.31973e-02 DIIS
   @RHF iter   7:  -208.06792405960718   -4.38083e-02   8.13951e-03 DIIS
   @RHF iter   8:  -208.06951811343023   -1.59405e-03   1.93992e-03 DIIS
   @RHF iter   9:  -208.06977067930788   -2.52566e-04   7.16467e-04 DIIS
   @RHF iter  10:  -208.06980597612372   -3.52968e-05   3.77767e-04 DIIS
   @RHF iter  11:  -208.06981701059740   -1.10345e-05   1.58286e-04 DIIS
   @RHF iter  12:  -208.06981985958950   -2.84899e-06   9.02110e-05 DIIS
   @RHF iter  13:  -208.06982029529254   -4.35703e-07   3.54505e-05 DIIS
   @RHF iter  14:  -208.06982032719455   -3.19020e-08   1.15049e-05 DIIS
   @RHF iter  15:  -208.06982032759649   -4.01940e-10   1.40392e-06 DIIS
   @RHF iter  16:  -208.06982032760769   -1.11982e-11   2.58783e-07 DIIS
   @RHF iter  17:  -208.06982032760820   -5.11591e-13   4.63179e-08 DIIS
   @RHF iter  18:  -208.06982032760820    0.00000e+00   8.35873e-09 DIIS
   @RHF iter  19:  -208.06982032760808    1.13687e-13   2.28742e-09 DIIS
   @RHF iter  20:  -208.06982032760826   -1.70530e-13   4.15324e-10 DIIS
   @RHF iter  21:  -208.06982032760826    0.00000e+00   8.10424e-11 DIIS
   @RHF iter  22:  -208.06982032760826    0.00000e+00   2.07239e-11 DIIS

  ==> Post-Iterations <==

	Orbital Energies (a.u.)
	-----------------------

	Doubly Occupied:                                                      

	   1A1   -15.334246     2A1   -11.080304     3A1   -11.069645  
	   1B1   -11.069133     4A1   -11.010450     5A1    -0.988882  
	   6A1    -0.939691     7A1    -0.682562     2B1    -0.653852  
	   8A1    -0.505467     1B2    -0.464777     1A2    -0.343318  
	   9A1    -0.318116     3B1    -0.304057     2B2    -0.279741  
	  10A1    -0.250051     4B1    -0.188640     3B2    -0.054726  

	Virtual:                                                              

	   5B1     0.377150     6B1     0.399182    11A1     0.404408  
	  12A1     0.457251     4B2     0.458632     7B1     0.519565  
	  13A1     0.524853     8B1     0.564051    14A1     0.593286  
	   2A2     0.611687     5B2     0.620014     6B2     0.628226  
	  15A1     0.662753     3A2     0.674610     9B1     0.713336  
	   7B2     0.723733    16A1     0.782867    17A1     0.814308  
	  10B1     0.819468     8B2     0.861563    11B1     0.888046  
	  12B1     0.989335    18A1     1.033130     9B2     1.096562  
	  19A1     1.122301    13B1     1.123154    20A1     1.334984  
	  14B1     1.409660    21A1     1.540291    22A1     1.581402  
	  10B2     1.609195    23A1     1.626814     4A2     1.673391  
	  15B1     1.737096    24A1     1.871497    25A1    23.959616  
	  26A1    24.163009    16B1    24.202130    27A1    24.347263  
	  28A1    33.411466  

	Final Occupation by Irrep:
	         A1    A2    B1    B2 
	DOCC [    10,    1,    4,    3 ]

  Energy converged.

  @RHF Final Energy:  -208.06982032760826

   => Energetics <=

    Nuclear Repulsion Energy =        136.4781217369211106
    One-Electron Energy =            -558.0205669534389017
    Two-Electron Energy =             213.4726248889095359
    DFT Functional Energy =             0.0000000000000000
    Empirical Dispersion Energy =       0.0000000000000000
    Total Energy =                   -208.0698203276082268

  ==> Properties <==

  Nuclear Dipole Moment: (a.u.)
     X:     0.0000      Y:     0.0000      Z:    -6.8905

  Electronic Dipole Moment: (a.u.)
     X:     0.0000      Y:     0.0000      Z:     4.7775

  Dipole Moment: (a.u.)
     X:     0.0000      Y:     0.0000      Z:    -2.1130     Total:     2.1130

  Dipole Moment: (Debye)
     X:     0.0000      Y:     0.0000      Z:    -5.3708     Total:     5.3708


  Saving occupied orbitals to File 180.

*** tstop() called on lawn-143-215-103-161.lawn.gatech.edu at Fri Apr 27 13:58:44 2012
Module time:
	user time   =       1.03 seconds =       0.02 minutes
	system time =       0.03 seconds =       0.00 minutes
	total time  =          2 seconds =       0.03 minutes
Total time:
	user time   =       9.41 seconds =       0.16 minutes
	system time =       0.11 seconds =       0.00 minutes
	total time  =         10 seconds =       0.17 minutes

*** tstart() called on lawn-143-215-103-161.lawn.gatech.edu
*** at Fri Apr 27 13:58:44 2012

 DERIV: Derivative code.
   by Justin Turney

  Cartesian Displacement SALCs
  By SALC:
  Number of SALCs: 8, nirreps: 1
  Project out translations: False
  Project out rotations: False
	irrep = 0, ncomponent = 1
		0: atom 0, direction z, coef 1.000000
	irrep = 0, ncomponent = 1
		0: atom 1, direction z, coef 1.000000
	irrep = 0, ncomponent = 1
		0: atom 2, direction z, coef 1.000000
	irrep = 0, ncomponent = 2
		0: atom 3, direction x, coef 0.707107
		1: atom 4, direction x, coef -0.707107
	irrep = 0, ncomponent = 2
		0: atom 3, direction z, coef 0.707107
		1: atom 4, direction z, coef 0.707107
	irrep = 0, ncomponent = 4
		0: atom 5, direction x, coef 0.500000
		1: atom 6, direction x, coef 0.500000
		2: atom 7, direction x, coef -0.500000
		3: atom 8, direction x, coef -0.500000
	irrep = 0, ncomponent = 4
		0: atom 5, direction y, coef 0.500000
		1: atom 6, direction y, coef -0.500000
		2: atom 7, direction y, coef -0.500000
		3: atom 8, direction y, coef 0.500000
	irrep = 0, ncomponent = 4
		0: atom 5, direction z, coef 0.500000
		1: atom 6, direction z, coef 0.500000
		2: atom 7, direction z, coef 0.500000
		3: atom 8, direction z, coef 0.500000

  By Atomic Center:
  Number of atomic centers: 9
   Atomic Center 0:
	x component, size = 0
	y component, size = 0
	z component, size = 1
		0: salc 0, irrep 0, coef 1.000000
   Atomic Center 1:
	x component, size = 0
	y component, size = 0
	z component, size = 1
		0: salc 1, irrep 0, coef 1.000000
   Atomic Center 2:
	x component, size = 0
	y component, size = 0
	z component, size = 1
		0: salc 2, irrep 0, coef 1.000000
   Atomic Center 3:
	x component, size = 1
		0: salc 3, irrep 0, coef 0.707107
	y component, size = 0
	z component, size = 1
		0: salc 4, irrep 0, coef 0.707107
   Atomic Center 4:
	x component, size = 1
		0: salc 3, irrep 0, coef -0.707107
	y component, size = 0
	z component, size = 1
		0: salc 4, irrep 0, coef 0.707107
   Atomic Center 5:
	x component, size = 1
		0: salc 5, irrep 0, coef 0.500000
	y component, size = 1
		0: salc 6, irrep 0, coef 0.500000
	z component, size = 1
		0: salc 7, irrep 0, coef 0.500000
   Atomic Center 6:
	x component, size = 1
		0: salc 5, irrep 0, coef 0.500000
	y component, size = 1
		0: salc 6, irrep 0, coef -0.500000
	z component, size = 1
		0: salc 7, irrep 0, coef 0.500000
   Atomic Center 7:
	x component, size = 1
		0: salc 5, irrep 0, coef -0.500000
	y component, size = 1
		0: salc 6, irrep 0, coef -0.500000
	z component, size = 1
		0: salc 7, irrep 0, coef 0.500000
   Atomic Center 8:
	x component, size = 1
		0: salc 5, irrep 0, coef -0.500000
	y component, size = 1
		0: salc 6, irrep 0, coef 0.500000
	z component, size = 1
		0: salc 7, irrep 0, coef 0.500000

    Molecular point group: c2v

    Geometry (in Bohr), charge = -1, multiplicity = 1:

       Center              X                  Y                   Z       
    ------------   -----------------  -----------------  -----------------
           C          0.000000000000     0.000000000000     2.116315278691
           N          0.000000000000     0.000000000000     4.364282230561
           C          0.000000000000     0.000000000000    -0.436285203474
           C         -1.477042614093    -0.000000000000    -2.803704483760
           C          1.477042614093     0.000000000000    -2.803704483760
           H         -2.408433370018    -1.700680764370    -3.469059583669
           H         -2.408433370018     1.700680764370    -3.469059583669
           H          2.408433370018     1.700680764370    -3.469059583669
           H          2.408433370018    -1.700680764370    -3.469059583669


  -Nuclear Repulsion Energy 1st Derivatives:
     Atom            X                  Y                   Z
    ------   -----------------  -----------------  -----------------
       1        0.000000000000     0.000000000000    -0.359096262406
       2        0.000000000000     0.000000000000   -12.043880323241
       3        0.000000000000     0.000000000000    -1.459604414445
       4        6.415057690179     0.000000000000     4.969611259559
       5       -6.415057690179     0.000000000000     4.969611259559
       6        1.286937423331     1.612064063448     0.980839620243
       7        1.286937423331    -1.612064063448     0.980839620243
       8       -1.286937423331    -1.612064063448     0.980839620243
       9       -1.286937423331     1.612064063448     0.980839620243


  -One-electron contribution to gradient:
     Atom            X                  Y                   Z
    ------   -----------------  -----------------  -----------------
       1        0.000000000000     0.000000000000    -4.443903729844
       2        0.000000000000     0.000000000000    31.872614505822
       3        0.000000000000     0.000000000000    -0.252645573785
       4      -11.308537282028     0.000000000000    -9.111516854020
       5       11.308537282028     0.000000000000    -9.111516854020
       6       -2.816998173330    -4.253082338018    -2.238257873516
       7       -2.816998173330     4.253082338018    -2.238257873516
       8        2.816998173330     4.253082338018    -2.238257873516
       9        2.816998173330    -4.253082338018    -2.238257873516


  -Lagrangian contribution to gradient:
     Atom            X                  Y                   Z
    ------   -----------------  -----------------  -----------------
       1        0.000000000000     0.000000000000     0.222515092470
       2        0.000000000000     0.000000000000    -0.572776283814
       3        0.000000000000     0.000000000000     0.075756796919
       4        0.068862815294     0.000000000000     0.039494385226
       5       -0.068862815294     0.000000000000     0.039494385226
       6        0.060343056580     0.122645106645     0.048878905993
       7        0.060343056580    -0.122645106645     0.048878905993
       8       -0.060343056580    -0.122645106645     0.048878905993
       9       -0.060343056580     0.122645106645     0.048878905993


  -Two-electron contribution to gradient:
     Atom            X                  Y                   Z
    ------   -----------------  -----------------  -----------------
       1        0.000000000000     0.000000000000     4.581431554005
       2        0.000000000000     0.000000000000   -19.257224838207
       3        0.000000000000     0.000000000000     1.636815256793
       4        4.824609232635     0.000000000000     4.102399477275
       5       -4.824609232635     0.000000000000     4.102399477275
       6        1.469720162994     2.518376074234     1.208544768301
       7        1.469720162994    -2.518376074234     1.208544768301
       8       -1.469720162994    -2.518376074234     1.208544768301
       9       -1.469720162994     2.518376074234     1.208544768301


  -Total gradient:
     Atom            X                  Y                   Z
    ------   -----------------  -----------------  -----------------
       1        0.000000000000     0.000000000000     0.000946654226
       2        0.000000000000     0.000000000000    -0.001266939440
       3        0.000000000000     0.000000000000     0.000322065482
       4       -0.000007543920     0.000000000000    -0.000011731960
       5        0.000007543920     0.000000000000    -0.000011731960
       6        0.000002469576     0.000002906310     0.000005421021
       7        0.000002469576    -0.000002906310     0.000005421021
       8       -0.000002469576    -0.000002906310     0.000005421021
       9       -0.000002469576     0.000002906310     0.000005421021


*** tstop() called on lawn-143-215-103-161.lawn.gatech.edu at Fri Apr 27 13:58:47 2012
Module time:
	user time   =       3.14 seconds =       0.05 minutes
	system time =       0.00 seconds =       0.00 minutes
	total time  =          3 seconds =       0.05 minutes
Total time:
	user time   =      12.55 seconds =       0.21 minutes
	system time =       0.11 seconds =       0.00 minutes
	total time  =         13 seconds =       0.22 minutes

  //>>>>>>>>>>>>>>>>>>>>>>>>>>>>>>>>>>>//
  //    Loading displacement 4 of 29   //
  //<<<<<<<<<<<<<<<<<<<<<<<<<<<<<<<<<<<//

*** tstart() called on lawn-143-215-103-161.lawn.gatech.edu
*** at Fri Apr 27 13:58:47 2012


         ---------------------------------------------------------
                                   SCF
            by Justin Turney, Rob Parrish, and Andy Simmonett
                              RHF Reference
                        1 Threads,    250 MiB Core
         ---------------------------------------------------------

  ==> Geometry <==

    Molecular point group: c2v

    Geometry (in Angstrom), charge = -1, multiplicity = 1:

       Center              X                  Y                   Z       
    ------------   -----------------  -----------------  -----------------
           C          0.000000000000     0.000000000000     1.119905811674
           N          0.000000000000     0.000000000000     2.310695866631
           C          0.000000000000     0.000000000000    -0.231297958922
           C         -0.781617287494    -0.000000000000    -1.484082285226
           C          0.781617287494     0.000000000000    -1.484082285226
           H         -1.274488047821    -0.899961499592    -1.836173039717
           H         -1.274488047821     0.899961499592    -1.836173039717
           H          1.274488047821     0.899961499592    -1.836173039717
           H          1.274488047821    -0.899961499592    -1.836173039717

  Running in c2v symmetry.

  Nuclear repulsion =  136.440467095273817

  Charge       = -1
  Multiplicity = 1
  Electrons    = 36
  Nalpha       = 18
  Nbeta        = 18

  ==> Algorithm <==

  SCF Algorithm Type is PK.
  DIIS enabled.
  MOM disabled.
  Fractional occupation disabled.
  Guess Type is CORE.
  Energy threshold   = 1.00e-08
  Density threshold  = 1.00e-11
  Integral threshold = 0.00e+00

  ==> Primary Basis <==

  Basis Set: DZ
    Number of shells: 38
    Number of basis function: 58
    Number of Cartesian functions: 58
    Spherical Harmonics?: true
    Max angular momentum: 1

  ==> Pre-Iterations <==

  Minimum eigenvalue in the overlap matrix is 2.5858712967E-03.
  Using Symmetric Orthogonalization.
  SCF Guess: Core (One-Electron) Hamiltonian.

  Initial RHF energy:  -161.68864035221597

   -------------------------------------------------------
    Irrep   Nso     Nmo     Nalpha   Nbeta   Ndocc  Nsocc
   -------------------------------------------------------
     A1        28      28      10      10      10       0
     A2         4       4       1       1       1       0
     B1        16      16       4       4       4       0
     B2        10      10       3       3       3       0
   -------------------------------------------------------
    Total      58      58      18      18      18       0
   -------------------------------------------------------

  ==> Integral Setup <==

 MINTS: Wrapper to libmints.
   by Justin Turney

   Calculation information:
      Number of atoms:                   9
      Number of AO shells:              38
      Number of SO shells:              26
      Number of primitives:             86
      Number of atomic orbitals:        58
      Number of basis functions:        58

      Number of irreps:                  4
      Number of functions per irrep: [  28    4   16   10 ]

      Overlap, kinetic, potential, dipole, and quadrupole integrals
        stored in file 35.

      Computing two-electron integrals...done
      Computed 376407 non-zero two-electron integrals.
        Stored in file 33.

  ==> Iterations <==

                        Total Energy        Delta E     Density RMS

   @RHF iter   1:  -179.44727035419740   -1.77586e+01   0.00000e+00 
	Occupation by irrep:
	         A1    A2    B1    B2 
	DOCC [    10,    1,    5,    2 ]

   @RHF iter   2:  -187.14656212845321   -7.69929e+00   1.01489e+00 DIIS
	Occupation by irrep:
	         A1    A2    B1    B2 
	DOCC [    10,    1,    4,    3 ]

   @RHF iter   3:  -197.69629955980432   -1.05497e+01   1.00224e+00 DIIS
   @RHF iter   4:  -207.34278871452219   -9.64649e+00   1.19714e-01 DIIS
   @RHF iter   5:  -207.87339690559017   -5.30608e-01   4.92865e-02 DIIS
   @RHF iter   6:  -208.02406389402185   -1.50667e-01   1.32219e-02 DIIS
   @RHF iter   7:  -208.06790948054712   -4.38456e-02   8.13992e-03 DIIS
   @RHF iter   8:  -208.06951560555595   -1.60613e-03   1.94365e-03 DIIS
   @RHF iter   9:  -208.06977017359557   -2.54568e-04   7.17633e-04 DIIS
   @RHF iter  10:  -208.06980578720950   -3.56136e-05   3.79090e-04 DIIS
   @RHF iter  11:  -208.06981695629392   -1.11691e-05   1.59069e-04 DIIS
   @RHF iter  12:  -208.06981985158458   -2.89529e-06   9.09350e-05 DIIS
   @RHF iter  13:  -208.06982029582534   -4.44241e-07   3.57859e-05 DIIS
   @RHF iter  14:  -208.06982032860472   -3.27794e-08   1.16640e-05 DIIS
   @RHF iter  15:  -208.06982032901848   -4.13763e-10   1.42605e-06 DIIS
   @RHF iter  16:  -208.06982032903014   -1.16529e-11   2.61923e-07 DIIS
   @RHF iter  17:  -208.06982032903065   -5.11591e-13   4.69287e-08 DIIS
   @RHF iter  18:  -208.06982032903065    0.00000e+00   8.42245e-09 DIIS
   @RHF iter  19:  -208.06982032903088   -2.27374e-13   2.32127e-09 DIIS
   @RHF iter  20:  -208.06982032903065    2.27374e-13   4.22650e-10 DIIS
   @RHF iter  21:  -208.06982032903059    5.68434e-14   8.34047e-11 DIIS
   @RHF iter  22:  -208.06982032903070   -1.13687e-13   2.11375e-11 DIIS

  ==> Post-Iterations <==

	Orbital Energies (a.u.)
	-----------------------

	Doubly Occupied:                                                      

	   1A1   -15.334466     2A1   -11.080582     3A1   -11.069736  
	   1B1   -11.069225     4A1   -11.010686     5A1    -0.988281  
	   6A1    -0.939742     7A1    -0.682544     2B1    -0.653946  
	   8A1    -0.505572     1B2    -0.464866     1A2    -0.343411  
	   9A1    -0.318142     3B1    -0.303931     2B2    -0.279420  
	  10A1    -0.250127     4B1    -0.188467     3B2    -0.054824  

	Virtual:                                                              

	   5B1     0.376939     6B1     0.399032    11A1     0.404322  
	  12A1     0.457177     4B2     0.458232     7B1     0.519416  
	  13A1     0.524774     8B1     0.563981    14A1     0.593149  
	   2A2     0.611626     5B2     0.619999     6B2     0.628013  
	  15A1     0.662647     3A2     0.674525     9B1     0.713368  
	   7B2     0.723764    16A1     0.782580    17A1     0.814213  
	  10B1     0.819300     8B2     0.861552    11B1     0.887909  
	  12B1     0.989254    18A1     1.032792     9B2     1.096261  
	  19A1     1.122363    13B1     1.122868    20A1     1.334850  
	  14B1     1.409564    21A1     1.539988    22A1     1.580757  
	  10B2     1.609109    23A1     1.624690     4A2     1.673303  
	  15B1     1.736911    24A1     1.871089    25A1    23.959381  
	  26A1    24.162707    16B1    24.202018    27A1    24.346657  
	  28A1    33.410890  

	Final Occupation by Irrep:
	         A1    A2    B1    B2 
	DOCC [    10,    1,    4,    3 ]

  Energy converged.

  @RHF Final Energy:  -208.06982032903070

   => Energetics <=

    Nuclear Repulsion Energy =        136.4404670952738172
    One-Electron Energy =            -557.9446376562470959
    Two-Electron Energy =             213.4343502319426307
    DFT Functional Energy =             0.0000000000000000
    Empirical Dispersion Energy =       0.0000000000000000
    Total Energy =                   -208.0698203290306765

  ==> Properties <==

  Nuclear Dipole Moment: (a.u.)
     X:     0.0000      Y:     0.0000      Z:    -6.8921

  Electronic Dipole Moment: (a.u.)
     X:     0.0000      Y:     0.0000      Z:     4.7754

  Dipole Moment: (a.u.)
     X:     0.0000      Y:     0.0000      Z:    -2.1168     Total:     2.1168

  Dipole Moment: (Debye)
     X:     0.0000      Y:     0.0000      Z:    -5.3803     Total:     5.3803


  Saving occupied orbitals to File 180.

*** tstop() called on lawn-143-215-103-161.lawn.gatech.edu at Fri Apr 27 13:58:48 2012
Module time:
	user time   =       1.03 seconds =       0.02 minutes
	system time =       0.04 seconds =       0.00 minutes
	total time  =          1 seconds =       0.02 minutes
Total time:
	user time   =      13.59 seconds =       0.23 minutes
	system time =       0.15 seconds =       0.00 minutes
	total time  =         14 seconds =       0.23 minutes

*** tstart() called on lawn-143-215-103-161.lawn.gatech.edu
*** at Fri Apr 27 13:58:48 2012

 DERIV: Derivative code.
   by Justin Turney

  Cartesian Displacement SALCs
  By SALC:
  Number of SALCs: 8, nirreps: 1
  Project out translations: False
  Project out rotations: False
	irrep = 0, ncomponent = 1
		0: atom 0, direction z, coef 1.000000
	irrep = 0, ncomponent = 1
		0: atom 1, direction z, coef 1.000000
	irrep = 0, ncomponent = 1
		0: atom 2, direction z, coef 1.000000
	irrep = 0, ncomponent = 2
		0: atom 3, direction x, coef 0.707107
		1: atom 4, direction x, coef -0.707107
	irrep = 0, ncomponent = 2
		0: atom 3, direction z, coef 0.707107
		1: atom 4, direction z, coef 0.707107
	irrep = 0, ncomponent = 4
		0: atom 5, direction x, coef 0.500000
		1: atom 6, direction x, coef 0.500000
		2: atom 7, direction x, coef -0.500000
		3: atom 8, direction x, coef -0.500000
	irrep = 0, ncomponent = 4
		0: atom 5, direction y, coef 0.500000
		1: atom 6, direction y, coef -0.500000
		2: atom 7, direction y, coef -0.500000
		3: atom 8, direction y, coef 0.500000
	irrep = 0, ncomponent = 4
		0: atom 5, direction z, coef 0.500000
		1: atom 6, direction z, coef 0.500000
		2: atom 7, direction z, coef 0.500000
		3: atom 8, direction z, coef 0.500000

  By Atomic Center:
  Number of atomic centers: 9
   Atomic Center 0:
	x component, size = 0
	y component, size = 0
	z component, size = 1
		0: salc 0, irrep 0, coef 1.000000
   Atomic Center 1:
	x component, size = 0
	y component, size = 0
	z component, size = 1
		0: salc 1, irrep 0, coef 1.000000
   Atomic Center 2:
	x component, size = 0
	y component, size = 0
	z component, size = 1
		0: salc 2, irrep 0, coef 1.000000
   Atomic Center 3:
	x component, size = 1
		0: salc 3, irrep 0, coef 0.707107
	y component, size = 0
	z component, size = 1
		0: salc 4, irrep 0, coef 0.707107
   Atomic Center 4:
	x component, size = 1
		0: salc 3, irrep 0, coef -0.707107
	y component, size = 0
	z component, size = 1
		0: salc 4, irrep 0, coef 0.707107
   Atomic Center 5:
	x component, size = 1
		0: salc 5, irrep 0, coef 0.500000
	y component, size = 1
		0: salc 6, irrep 0, coef 0.500000
	z component, size = 1
		0: salc 7, irrep 0, coef 0.500000
   Atomic Center 6:
	x component, size = 1
		0: salc 5, irrep 0, coef 0.500000
	y component, size = 1
		0: salc 6, irrep 0, coef -0.500000
	z component, size = 1
		0: salc 7, irrep 0, coef 0.500000
   Atomic Center 7:
	x component, size = 1
		0: salc 5, irrep 0, coef -0.500000
	y component, size = 1
		0: salc 6, irrep 0, coef -0.500000
	z component, size = 1
		0: salc 7, irrep 0, coef 0.500000
   Atomic Center 8:
	x component, size = 1
		0: salc 5, irrep 0, coef -0.500000
	y component, size = 1
		0: salc 6, irrep 0, coef 0.500000
	z component, size = 1
		0: salc 7, irrep 0, coef 0.500000

    Molecular point group: c2v

    Geometry (in Bohr), charge = -1, multiplicity = 1:

       Center              X                  Y                   Z       
    ------------   -----------------  -----------------  -----------------
           C          0.000000000000     0.000000000000     2.116315278691
           N          0.000000000000     0.000000000000     4.366582364324
           C          0.000000000000     0.000000000000    -0.437089797459
           C         -1.477042614093    -0.000000000000    -2.804509077745
           C          1.477042614093     0.000000000000    -2.804509077745
           H         -2.408433370018    -1.700680764370    -3.469864177654
           H         -2.408433370018     1.700680764370    -3.469864177654
           H          2.408433370018     1.700680764370    -3.469864177654
           H          2.408433370018    -1.700680764370    -3.469864177654


  -Nuclear Repulsion Energy 1st Derivatives:
     Atom            X                  Y                   Z
    ------   -----------------  -----------------  -----------------
       1        0.000000000000     0.000000000000    -0.371745403254
       2        0.000000000000     0.000000000000   -12.023053158757
       3        0.000000000000     0.000000000000    -1.465440897158
       4        6.414684103373     0.000000000000     4.968612689126
       5       -6.414684103373     0.000000000000     4.968612689126
       6        1.286888114987     1.612029245066     0.980753520229
       7        1.286888114987    -1.612029245066     0.980753520229
       8       -1.286888114987    -1.612029245066     0.980753520229
       9       -1.286888114987     1.612029245066     0.980753520229


  -One-electron contribution to gradient:
     Atom            X                  Y                   Z
    ------   -----------------  -----------------  -----------------
       1        0.000000000000     0.000000000000    -4.419826085443
       2        0.000000000000     0.000000000000    31.834385226623
       3        0.000000000000     0.000000000000    -0.244896012935
       4      -11.307362254726     0.000000000000    -9.107939459179
       5       11.307362254726     0.000000000000    -9.107939459179
       6       -2.817187053586    -4.253219290261    -2.238446052451
       7       -2.817187053586     4.253219290261    -2.238446052451
       8        2.817187053586     4.253219290261    -2.238446052451
       9        2.817187053586    -4.253219290261    -2.238446052451


  -Lagrangian contribution to gradient:
     Atom            X                  Y                   Z
    ------   -----------------  -----------------  -----------------
       1        0.000000000000     0.000000000000     0.222258093380
       2        0.000000000000     0.000000000000    -0.572101411151
       3        0.000000000000     0.000000000000     0.075464409644
       4        0.068813723809     0.000000000000     0.039415403082
       5       -0.068813723809     0.000000000000     0.039415403082
       6        0.060356261898     0.122668275328     0.048887025490
       7        0.060356261898    -0.122668275328     0.048887025490
       8       -0.060356261898    -0.122668275328     0.048887025490
       9       -0.060356261898     0.122668275328     0.048887025490


  -Two-electron contribution to gradient:
     Atom            X                  Y                   Z
    ------   -----------------  -----------------  -----------------
       1        0.000000000000     0.000000000000     4.568371307884
       2        0.000000000000     0.000000000000   -19.237968366451
       3        0.000000000000     0.000000000000     1.634550774391
       4        4.823871902215     0.000000000000     4.099923049330
       5       -4.823871902215     0.000000000000     4.099923049330
       6        1.469940149749     2.518518766254     1.208800046479
       7        1.469940149749    -2.518518766254     1.208800046479
       8       -1.469940149749    -2.518518766254     1.208800046479
       9       -1.469940149749     2.518518766254     1.208800046479


  -Total gradient:
     Atom            X                  Y                   Z
    ------   -----------------  -----------------  -----------------
       1        0.000000000000     0.000000000000    -0.000942087433
       2        0.000000000000     0.000000000000     0.001262290265
       3        0.000000000000     0.000000000000    -0.000321726057
       4        0.000007474670     0.000000000000     0.000011682360
       5       -0.000007474670     0.000000000000     0.000011682360
       6       -0.000002526951    -0.000003003613    -0.000005460253
       7       -0.000002526951     0.000003003613    -0.000005460253
       8        0.000002526951     0.000003003613    -0.000005460253
       9        0.000002526951    -0.000003003613    -0.000005460253


*** tstop() called on lawn-143-215-103-161.lawn.gatech.edu at Fri Apr 27 13:58:51 2012
Module time:
	user time   =       3.16 seconds =       0.05 minutes
	system time =       0.01 seconds =       0.00 minutes
	total time  =          3 seconds =       0.05 minutes
Total time:
	user time   =      16.75 seconds =       0.28 minutes
	system time =       0.16 seconds =       0.00 minutes
	total time  =         17 seconds =       0.28 minutes

  //>>>>>>>>>>>>>>>>>>>>>>>>>>>>>>>>>>>//
  //    Loading displacement 5 of 29   //
  //<<<<<<<<<<<<<<<<<<<<<<<<<<<<<<<<<<<//

*** tstart() called on lawn-143-215-103-161.lawn.gatech.edu
*** at Fri Apr 27 13:58:51 2012


         ---------------------------------------------------------
                                   SCF
            by Justin Turney, Rob Parrish, and Andy Simmonett
                              RHF Reference
                        1 Threads,    250 MiB Core
         ---------------------------------------------------------

  ==> Geometry <==

    Molecular point group: c2v

    Geometry (in Angstrom), charge = -1, multiplicity = 1:

       Center              X                  Y                   Z       
    ------------   -----------------  -----------------  -----------------
           C          0.000000000000     0.000000000000     1.119905811674
           N          0.000000000000     0.000000000000     2.310087277449
           C          0.000000000000     0.000000000000    -0.231724221776
           C         -0.781617287494    -0.000000000000    -1.483595783583
           C          0.781617287494     0.000000000000    -1.483595783583
           H         -1.274488047821    -0.899961499592    -1.835686538074
           H         -1.274488047821     0.899961499592    -1.835686538074
           H          1.274488047821     0.899961499592    -1.835686538074
           H          1.274488047821    -0.899961499592    -1.835686538074

  Running in c2v symmetry.

  Nuclear repulsion =  136.468231104040569

  Charge       = -1
  Multiplicity = 1
  Electrons    = 36
  Nalpha       = 18
  Nbeta        = 18

  ==> Algorithm <==

  SCF Algorithm Type is PK.
  DIIS enabled.
  MOM disabled.
  Fractional occupation disabled.
  Guess Type is CORE.
  Energy threshold   = 1.00e-08
  Density threshold  = 1.00e-11
  Integral threshold = 0.00e+00

  ==> Primary Basis <==

  Basis Set: DZ
    Number of shells: 38
    Number of basis function: 58
    Number of Cartesian functions: 58
    Spherical Harmonics?: true
    Max angular momentum: 1

  ==> Pre-Iterations <==

  Minimum eigenvalue in the overlap matrix is 2.5850374146E-03.
  Using Symmetric Orthogonalization.
  SCF Guess: Core (One-Electron) Hamiltonian.

  Initial RHF energy:  -161.68959905569511

   -------------------------------------------------------
    Irrep   Nso     Nmo     Nalpha   Nbeta   Ndocc  Nsocc
   -------------------------------------------------------
     A1        28      28      10      10      10       0
     A2         4       4       1       1       1       0
     B1        16      16       4       4       4       0
     B2        10      10       3       3       3       0
   -------------------------------------------------------
    Total      58      58      18      18      18       0
   -------------------------------------------------------

  ==> Integral Setup <==

 MINTS: Wrapper to libmints.
   by Justin Turney

   Calculation information:
      Number of atoms:                   9
      Number of AO shells:              38
      Number of SO shells:              26
      Number of primitives:             86
      Number of atomic orbitals:        58
      Number of basis functions:        58

      Number of irreps:                  4
      Number of functions per irrep: [  28    4   16   10 ]

      Overlap, kinetic, potential, dipole, and quadrupole integrals
        stored in file 35.

      Computing two-electron integrals...done
      Computed 376419 non-zero two-electron integrals.
        Stored in file 33.

  ==> Iterations <==

                        Total Energy        Delta E     Density RMS

   @RHF iter   1:  -179.44747446195214   -1.77579e+01   0.00000e+00 
	Occupation by irrep:
	         A1    A2    B1    B2 
	DOCC [    10,    1,    5,    2 ]

   @RHF iter   2:  -187.14549597348554   -7.69802e+00   1.01556e+00 DIIS
	Occupation by irrep:
	         A1    A2    B1    B2 
	DOCC [    10,    1,    4,    3 ]

   @RHF iter   3:  -197.70103712605703   -1.05555e+01   1.00296e+00 DIIS
   @RHF iter   4:  -207.34394401099490   -9.64291e+00   1.19840e-01 DIIS
   @RHF iter   5:  -207.87362647678037   -5.29682e-01   4.92471e-02 DIIS
   @RHF iter   6:  -208.02411309800596   -1.50487e-01   1.31983e-02 DIIS
   @RHF iter   7:  -208.06791022050265   -4.37971e-02   8.13601e-03 DIIS
   @RHF iter   8:  -208.06951648263032   -1.60626e-03   1.94183e-03 DIIS
   @RHF iter   9:  -208.06977003227115   -2.53550e-04   7.16558e-04 DIIS
   @RHF iter  10:  -208.06980554096896   -3.55087e-05   3.78773e-04 DIIS
   @RHF iter  11:  -208.06981665544339   -1.11145e-05   1.58839e-04 DIIS
   @RHF iter  12:  -208.06981952576848   -2.87033e-06   9.05402e-05 DIIS
   @RHF iter  13:  -208.06981996577571   -4.40007e-07   3.56040e-05 DIIS
   @RHF iter  14:  -208.06981999814190   -3.23662e-08   1.15876e-05 DIIS
   @RHF iter  15:  -208.06981999854952   -4.07624e-10   1.41482e-06 DIIS
   @RHF iter  16:  -208.06981999856089   -1.13687e-11   2.60043e-07 DIIS
   @RHF iter  17:  -208.06981999856151   -6.25278e-13   4.66076e-08 DIIS
   @RHF iter  18:  -208.06981999856140    1.13687e-13   8.38573e-09 DIIS
   @RHF iter  19:  -208.06981999856151   -1.13687e-13   2.30313e-09 DIIS
   @RHF iter  20:  -208.06981999856134    1.70530e-13   4.19403e-10 DIIS
   @RHF iter  21:  -208.06981999856134    0.00000e+00   8.26983e-11 DIIS
   @RHF iter  22:  -208.06981999856134    0.00000e+00   2.09665e-11 DIIS

  ==> Post-Iterations <==

	Orbital Energies (a.u.)
	-----------------------

	Doubly Occupied:                                                      

	   1A1   -15.334450     2A1   -11.080539     3A1   -11.069616  
	   1B1   -11.069104     4A1   -11.010493     5A1    -0.988649  
	   6A1    -0.939965     7A1    -0.682269     2B1    -0.653905  
	   8A1    -0.505587     1B2    -0.464851     1A2    -0.343326  
	   9A1    -0.318202     3B1    -0.304074     2B2    -0.279540  
	  10A1    -0.249979     4B1    -0.188772     3B2    -0.054727  

	Virtual:                                                              

	   5B1     0.377083     6B1     0.399185    11A1     0.404416  
	  12A1     0.457240     4B2     0.458315     7B1     0.519386  
	  13A1     0.524771     8B1     0.564054    14A1     0.593229  
	   2A2     0.611668     5B2     0.620014     6B2     0.628224  
	  15A1     0.662801     3A2     0.674589     9B1     0.713353  
	   7B2     0.723761    16A1     0.782576    17A1     0.814370  
	  10B1     0.819478     8B2     0.861518    11B1     0.887895  
	  12B1     0.989702    18A1     1.033180     9B2     1.096340  
	  19A1     1.122359    13B1     1.122928    20A1     1.335164  
	  14B1     1.409642    21A1     1.539908    22A1     1.581023  
	  10B2     1.609245    23A1     1.625221     4A2     1.673386  
	  15B1     1.737154    24A1     1.871156    25A1    23.959445  
	  26A1    24.163192    16B1    24.202175    27A1    24.346677  
	  28A1    33.411055  

	Final Occupation by Irrep:
	         A1    A2    B1    B2 
	DOCC [    10,    1,    4,    3 ]

  Energy converged.

  @RHF Final Energy:  -208.06981999856134

   => Energetics <=

    Nuclear Repulsion Energy =        136.4682311040405693
    One-Electron Energy =            -558.0000076219682796
    Two-Electron Energy =             213.4619565193663675
    DFT Functional Energy =             0.0000000000000000
    Empirical Dispersion Energy =       0.0000000000000000
    Total Energy =                   -208.0698199985613428

  ==> Properties <==

  Nuclear Dipole Moment: (a.u.)
     X:     0.0000      Y:     0.0000      Z:    -6.8903

  Electronic Dipole Moment: (a.u.)
     X:     0.0000      Y:     0.0000      Z:     4.7775

  Dipole Moment: (a.u.)
     X:     0.0000      Y:     0.0000      Z:    -2.1128     Total:     2.1128

  Dipole Moment: (Debye)
     X:     0.0000      Y:     0.0000      Z:    -5.3702     Total:     5.3702


  Saving occupied orbitals to File 180.

*** tstop() called on lawn-143-215-103-161.lawn.gatech.edu at Fri Apr 27 13:58:52 2012
Module time:
	user time   =       1.04 seconds =       0.02 minutes
	system time =       0.03 seconds =       0.00 minutes
	total time  =          1 seconds =       0.02 minutes
Total time:
	user time   =      17.79 seconds =       0.30 minutes
	system time =       0.19 seconds =       0.00 minutes
	total time  =         18 seconds =       0.30 minutes

*** tstart() called on lawn-143-215-103-161.lawn.gatech.edu
*** at Fri Apr 27 13:58:52 2012

 DERIV: Derivative code.
   by Justin Turney

[...]
       5       -0.000001340454     0.001257083866    -0.000001713538
       6       -0.000521763125    -0.000637689723    -0.000256331103
       7        0.000521316960    -0.000640478842     0.000258061211
       8       -0.000521316960    -0.000640478842     0.000258061211
       9        0.000521763125    -0.000637689723    -0.000256331103


*** tstop() called on lawn-143-215-103-161.lawn.gatech.edu at Fri Apr 27 14:02:53 2012
Module time:
	user time   =       4.20 seconds =       0.07 minutes
	system time =       0.02 seconds =       0.00 minutes
	total time  =          5 seconds =       0.08 minutes
Total time:
	user time   =     243.45 seconds =       4.06 minutes
	system time =       2.45 seconds =       0.04 minutes
	total time  =        259 seconds =       4.32 minutes

  //>>>>>>>>>>>>>>>>>>>>>>>>>>>>>>>>>>>//
  //   Loading displacement 11 of 11   //
  //<<<<<<<<<<<<<<<<<<<<<<<<<<<<<<<<<<<//

*** tstart() called on lawn-143-215-103-161.lawn.gatech.edu
*** at Fri Apr 27 14:02:53 2012


         ---------------------------------------------------------
                                   SCF
            by Justin Turney, Rob Parrish, and Andy Simmonett
                              RHF Reference
                        1 Threads,    250 MiB Core
         ---------------------------------------------------------

  ==> Geometry <==

    Molecular point group: c2v

    Geometry (in Angstrom), charge = -1, multiplicity = 1:

       Center              X                  Y                   Z       
    ------------   -----------------  -----------------  -----------------
           C          0.000000000000     0.000000000000     1.119905811674
           N          0.000000000000     0.000000000000     2.310087277449
           C          0.000000000000     0.000000000000    -0.231085072523
           C         -0.781617287494    -0.000000000000    -1.483869398827
           C          0.781617287494     0.000000000000    -1.483869398827
           H         -1.274488047821    -0.899961499592    -1.835960153318
           H         -1.274488047821     0.899961499592    -1.835960153318
           H          1.274488047821     0.899961499592    -1.835960153318
           H          1.274488047821    -0.899961499592    -1.835960153318

  Running in c2v symmetry.

  Nuclear repulsion =  136.459287605442228

  Charge       = -1
  Multiplicity = 1
  Electrons    = 36
  Nalpha       = 18
  Nbeta        = 18

  ==> Algorithm <==

  SCF Algorithm Type is PK.
  DIIS enabled.
  MOM disabled.
  Fractional occupation disabled.
  Guess Type is CORE.
  Energy threshold   = 1.00e-08
  Density threshold  = 1.00e-11
  Integral threshold = 0.00e+00

  ==> Primary Basis <==

  Basis Set: DZ
    Number of shells: 38
    Number of basis function: 58
    Number of Cartesian functions: 58
    Spherical Harmonics?: true
    Max angular momentum: 1

  ==> Pre-Iterations <==

  Minimum eigenvalue in the overlap matrix is 2.5827959258E-03.
  Using Symmetric Orthogonalization.
  SCF Guess: Core (One-Electron) Hamiltonian.

  Initial RHF energy:  -161.68943274106658

   -------------------------------------------------------
    Irrep   Nso     Nmo     Nalpha   Nbeta   Ndocc  Nsocc
   -------------------------------------------------------
     A1        28      28      10      10      10       0
     A2         4       4       1       1       1       0
     B1        16      16       4       4       4       0
     B2        10      10       3       3       3       0
   -------------------------------------------------------
    Total      58      58      18      18      18       0
   -------------------------------------------------------

  ==> Integral Setup <==

 MINTS: Wrapper to libmints.
   by Justin Turney

   Calculation information:
      Number of atoms:                   9
      Number of AO shells:              38
      Number of SO shells:              26
      Number of primitives:             86
      Number of atomic orbitals:        58
      Number of basis functions:        58

      Number of irreps:                  4
      Number of functions per irrep: [  28    4   16   10 ]

      Overlap, kinetic, potential, dipole, and quadrupole integrals
        stored in file 35.

      Computing two-electron integrals...done
      Computed 376416 non-zero two-electron integrals.
        Stored in file 33.

  ==> Iterations <==

                        Total Energy        Delta E     Density RMS

   @RHF iter   1:  -179.44530178082920   -1.77559e+01   0.00000e+00 
	Occupation by irrep:
	         A1    A2    B1    B2 
	DOCC [    10,    1,    5,    2 ]

   @RHF iter   2:  -187.14984026938475   -7.70454e+00   1.01544e+00 DIIS
	Occupation by irrep:
	         A1    A2    B1    B2 
	DOCC [    10,    1,    4,    3 ]

   @RHF iter   3:  -197.70187572157624   -1.05520e+01   1.00284e+00 DIIS
   @RHF iter   4:  -207.34256386718948   -9.64069e+00   1.19748e-01 DIIS
   @RHF iter   5:  -207.87350631579920   -5.30942e-01   4.92799e-02 DIIS
   @RHF iter   6:  -208.02409135176731   -1.50585e-01   1.32095e-02 DIIS
   @RHF iter   7:  -208.06791754397750   -4.38262e-02   8.13962e-03 DIIS
   @RHF iter   8:  -208.06951764830376   -1.60010e-03   1.94179e-03 DIIS
   @RHF iter   9:  -208.06977121926366   -2.53571e-04   7.17052e-04 DIIS
   @RHF iter  10:  -208.06980667372073   -3.54545e-05   3.78426e-04 DIIS
   @RHF iter  11:  -208.06981777515932   -1.11014e-05   1.58674e-04 DIIS
   @RHF iter  12:  -208.06982064722166   -2.87206e-06   9.05728e-05 DIIS
   @RHF iter  13:  -208.06982108717267   -4.39951e-07   3.56177e-05 DIIS
   @RHF iter  14:  -208.06982111951140   -3.23387e-08   1.15844e-05 DIIS
   @RHF iter  15:  -208.06982111991942   -4.08022e-10   1.41498e-06 DIIS
   @RHF iter  16:  -208.06982111993096   -1.15392e-11   2.60353e-07 DIIS
   @RHF iter  17:  -208.06982111993136   -3.97904e-13   4.66228e-08 DIIS
   @RHF iter  18:  -208.06982111993148   -1.13687e-13   8.39060e-09 DIIS
   @RHF iter  19:  -208.06982111993119    2.84217e-13   2.30432e-09 DIIS
   @RHF iter  20:  -208.06982111993142   -2.27374e-13   4.19005e-10 DIIS
   @RHF iter  21:  -208.06982111993142    0.00000e+00   8.22373e-11 DIIS
   @RHF iter  22:  -208.06982111993131    1.13687e-13   2.09014e-11 DIIS

  ==> Post-Iterations <==

	Orbital Energies (a.u.)
	-----------------------

	Doubly Occupied:                                                      

	   1A1   -15.334356     2A1   -11.080443     3A1   -11.069691  
	   1B1   -11.069179     4A1   -11.010568     5A1    -0.988581  
	   6A1    -0.939717     7A1    -0.682553     2B1    -0.653899  
	   8A1    -0.505519     1B2    -0.464822     1A2    -0.343364  
	   9A1    -0.318129     3B1    -0.303994     2B2    -0.279580  
	  10A1    -0.250089     4B1    -0.188554     3B2    -0.054775  

	Virtual:                                                              

	   5B1     0.377045     6B1     0.399107    11A1     0.404365  
	  12A1     0.457214     4B2     0.458432     7B1     0.519490  
	  13A1     0.524814     8B1     0.564016    14A1     0.593217  
	   2A2     0.611656     5B2     0.620006     6B2     0.628119  
	  15A1     0.662700     3A2     0.674567     9B1     0.713352  
	   7B2     0.723748    16A1     0.782724    17A1     0.814260  
	  10B1     0.819384     8B2     0.861558    11B1     0.887977  
	  12B1     0.989295    18A1     1.032961     9B2     1.096411  
	  19A1     1.122332    13B1     1.123011    20A1     1.334917  
	  14B1     1.409612    21A1     1.540140    22A1     1.581084  
	  10B2     1.609152    23A1     1.625747     4A2     1.673347  
	  15B1     1.737004    24A1     1.871292    25A1    23.959499  
	  26A1    24.162858    16B1    24.202074    27A1    24.346960  
	  28A1    33.411178  

	Final Occupation by Irrep:
	         A1    A2    B1    B2 
	DOCC [    10,    1,    4,    3 ]

  Energy converged.

  @RHF Final Energy:  -208.06982111993131

   => Energetics <=

    Nuclear Repulsion Energy =        136.4592876054422277
    One-Electron Energy =            -557.9825902868452658
    Two-Electron Energy =             213.4534815614718468
    DFT Functional Energy =             0.0000000000000000
    Empirical Dispersion Energy =       0.0000000000000000
    Total Energy =                   -208.0698211199311913

  ==> Properties <==

  Nuclear Dipole Moment: (a.u.)
     X:     0.0000      Y:     0.0000      Z:    -6.8913

  Electronic Dipole Moment: (a.u.)
     X:     0.0000      Y:     0.0000      Z:     4.7764

  Dipole Moment: (a.u.)
     X:     0.0000      Y:     0.0000      Z:    -2.1149     Total:     2.1149

  Dipole Moment: (Debye)
     X:     0.0000      Y:     0.0000      Z:    -5.3755     Total:     5.3755


  Saving occupied orbitals to File 180.

*** tstop() called on lawn-143-215-103-161.lawn.gatech.edu at Fri Apr 27 14:02:54 2012
Module time:
	user time   =       1.04 seconds =       0.02 minutes
	system time =       0.03 seconds =       0.00 minutes
	total time  =          1 seconds =       0.02 minutes
Total time:
	user time   =     244.49 seconds =       4.07 minutes
	system time =       2.48 seconds =       0.04 minutes
	total time  =        260 seconds =       4.33 minutes

*** tstart() called on lawn-143-215-103-161.lawn.gatech.edu
*** at Fri Apr 27 14:02:54 2012

 DERIV: Derivative code.
   by Justin Turney

  Cartesian Displacement SALCs
  By SALC:
  Number of SALCs: 8, nirreps: 1
  Project out translations: False
  Project out rotations: False
	irrep = 0, ncomponent = 1
		0: atom 0, direction z, coef 1.000000
	irrep = 0, ncomponent = 1
		0: atom 1, direction z, coef 1.000000
	irrep = 0, ncomponent = 1
		0: atom 2, direction z, coef 1.000000
	irrep = 0, ncomponent = 2
		0: atom 3, direction x, coef 0.707107
		1: atom 4, direction x, coef -0.707107
	irrep = 0, ncomponent = 2
		0: atom 3, direction z, coef 0.707107
		1: atom 4, direction z, coef 0.707107
	irrep = 0, ncomponent = 4
		0: atom 5, direction x, coef 0.500000
		1: atom 6, direction x, coef 0.500000
		2: atom 7, direction x, coef -0.500000
		3: atom 8, direction x, coef -0.500000
	irrep = 0, ncomponent = 4
		0: atom 5, direction y, coef 0.500000
		1: atom 6, direction y, coef -0.500000
		2: atom 7, direction y, coef -0.500000
		3: atom 8, direction y, coef 0.500000
	irrep = 0, ncomponent = 4
		0: atom 5, direction z, coef 0.500000
		1: atom 6, direction z, coef 0.500000
		2: atom 7, direction z, coef 0.500000
		3: atom 8, direction z, coef 0.500000

  By Atomic Center:
  Number of atomic centers: 9
   Atomic Center 0:
	x component, size = 0
	y component, size = 0
	z component, size = 1
		0: salc 0, irrep 0, coef 1.000000
   Atomic Center 1:
	x component, size = 0
	y component, size = 0
	z component, size = 1
		0: salc 1, irrep 0, coef 1.000000
   Atomic Center 2:
	x component, size = 0
	y component, size = 0
	z component, size = 1
		0: salc 2, irrep 0, coef 1.000000
   Atomic Center 3:
	x component, size = 1
		0: salc 3, irrep 0, coef 0.707107
	y component, size = 0
	z component, size = 1
		0: salc 4, irrep 0, coef 0.707107
   Atomic Center 4:
	x component, size = 1
		0: salc 3, irrep 0, coef -0.707107
	y component, size = 0
	z component, size = 1
		0: salc 4, irrep 0, coef 0.707107
   Atomic Center 5:
	x component, size = 1
		0: salc 5, irrep 0, coef 0.500000
	y component, size = 1
		0: salc 6, irrep 0, coef 0.500000
	z component, size = 1
		0: salc 7, irrep 0, coef 0.500000
   Atomic Center 6:
	x component, size = 1
		0: salc 5, irrep 0, coef 0.500000
	y component, size = 1
		0: salc 6, irrep 0, coef -0.500000
	z component, size = 1
		0: salc 7, irrep 0, coef 0.500000
   Atomic Center 7:
	x component, size = 1
		0: salc 5, irrep 0, coef -0.500000
	y component, size = 1
		0: salc 6, irrep 0, coef -0.500000
	z component, size = 1
		0: salc 7, irrep 0, coef 0.500000
   Atomic Center 8:
	x component, size = 1
		0: salc 5, irrep 0, coef -0.500000
	y component, size = 1
		0: salc 6, irrep 0, coef 0.500000
	z component, size = 1
		0: salc 7, irrep 0, coef 0.500000

    Molecular point group: c2v

    Geometry (in Bohr), charge = -1, multiplicity = 1:

       Center              X                  Y                   Z       
    ------------   -----------------  -----------------  -----------------
           C          0.000000000000     0.000000000000     2.116315278691
           N          0.000000000000     0.000000000000     4.365432297442
           C          0.000000000000     0.000000000000    -0.436687500466
           C         -1.477042614093    -0.000000000000    -2.804106780753
           C          1.477042614093     0.000000000000    -2.804106780753
           H         -2.408433370018    -1.700680764370    -3.469461880662
           H         -2.408433370018     1.700680764370    -3.469461880662
           H          2.408433370018     1.700680764370    -3.469461880662
           H          2.408433370018    -1.700680764370    -3.469461880662


  -Nuclear Repulsion Energy 1st Derivatives:
     Atom            X                  Y                   Z
    ------   -----------------  -----------------  -----------------
       1        0.000000000000     0.000000000000    -0.365426893117
       2        0.000000000000     0.000000000000   -12.033459444515
       3        0.000000000000     0.000000000000    -1.462523638233
       4        6.414870843332     0.000000000000     4.969111862241
       5       -6.414870843332     0.000000000000     4.969111862241
       6        1.286912763134     1.612046650002     0.980796562845
       7        1.286912763134    -1.612046650002     0.980796562845
       8       -1.286912763134    -1.612046650002     0.980796562845
       9       -1.286912763134     1.612046650002     0.980796562845


  -One-electron contribution to gradient:
     Atom            X                  Y                   Z
    ------   -----------------  -----------------  -----------------
       1        0.000000000000     0.000000000000    -4.431863871630
       2        0.000000000000     0.000000000000    31.853499308456
       3        0.000000000000     0.000000000000    -0.248772204366
       4      -11.307949798185     0.000000000000    -9.109727605511
       5       11.307949798185     0.000000000000    -9.109727605511
       6       -2.817092658540    -4.253150823504    -2.238352005338
       7       -2.817092658540     4.253150823504    -2.238352005338
       8        2.817092658540     4.253150823504    -2.238352005338
       9        2.817092658540    -4.253150823504    -2.238352005338


  -Lagrangian contribution to gradient:
     Atom            X                  Y                   Z
    ------   -----------------  -----------------  -----------------
       1        0.000000000000     0.000000000000     0.222386904361
       2        0.000000000000     0.000000000000    -0.572439252638
       3        0.000000000000     0.000000000000     0.075610723116
       4        0.068838271669     0.000000000000     0.039454881050
       5       -0.068838271669     0.000000000000     0.039454881050
       6        0.060349660663     0.122656692252     0.048882965765
       7        0.060349660663    -0.122656692252     0.048882965765
       8       -0.060349660663    -0.122656692252     0.048882965765
       9       -0.060349660663     0.122656692252     0.048882965765


  -Two-electron contribution to gradient:
     Atom            X                  Y                   Z
    ------   -----------------  -----------------  -----------------
       1        0.000000000000     0.000000000000     4.574903789023
       2        0.000000000000     0.000000000000   -19.247600413904
       3        0.000000000000     0.000000000000     1.635685120251
       4        4.824240647400     0.000000000000     4.101160840980
       5       -4.824240647400     0.000000000000     4.101160840980
       6        1.469830205295     2.518447432162     1.208672455758
       7        1.469830205295    -2.518447432162     1.208672455758
       8       -1.469830205295    -2.518447432162     1.208672455758
       9       -1.469830205295     2.518447432162     1.208672455758


  -Total gradient:
     Atom            X                  Y                   Z
    ------   -----------------  -----------------  -----------------
       1        0.000000000000     0.000000000000    -0.000000071363
       2        0.000000000000     0.000000000000     0.000000197399
       3        0.000000000000     0.000000000000     0.000000000769
       4       -0.000000035784     0.000000000000    -0.000000021240
       5        0.000000035784     0.000000000000    -0.000000021240
       6       -0.000000029448    -0.000000049088    -0.000000020969
       7       -0.000000029448     0.000000049088    -0.000000020969
       8        0.000000029448     0.000000049088    -0.000000020969
       9        0.000000029448    -0.000000049088    -0.000000020969


*** tstop() called on lawn-143-215-103-161.lawn.gatech.edu at Fri Apr 27 14:02:57 2012
Module time:
	user time   =       3.23 seconds =       0.05 minutes
	system time =       0.01 seconds =       0.00 minutes
	total time  =          3 seconds =       0.05 minutes
Total time:
	user time   =     247.72 seconds =       4.13 minutes
	system time =       2.49 seconds =       0.04 minutes
	total time  =        263 seconds =       4.38 minutes

-------------------------------------------------------------

  Computing second-derivative from gradients using projected, 
  symmetry-adapted, cartesian coordinates (fd_freq_1).

  11 gradients passed in, including the reference geometry.
  Generating complete list of displacements from unique ones.

	Operation 2 takes plus displacements of irrep B2 to minus ones.

	  Irrep      Harmonic Frequency   
	                  (cm-1)          
	-----------------------------------------------
	     B2          184.0603i 
	     B2          601.8180  
	     B2          895.5593  
	     B2         1160.1272  
	     B2         3244.3006  
	-----------------------------------------------

	Normal Modes (mass-weighted).
	Molecular mass is   66.03437 amu.
	Frequencies in cm^-1; force constants in au.

   Frequency:        184.06i
   Force constant:  -0.0013
	     X       Y       Z 	
  C 	   0.000   0.039   0.000
  N 	   0.000  -0.327   0.000
  C 	   0.000   0.805   0.000
  C 	   0.000  -0.170   0.000
  C 	   0.000  -0.170   0.000
  H 	   0.022  -0.130   0.171
  H 	  -0.022  -0.130  -0.171
  H 	   0.022  -0.130  -0.171
  H 	  -0.022  -0.130   0.171

   Frequency:        601.82
   Force constant:   0.0137
	     X       Y       Z 	
  C 	   0.000  -0.843   0.000
  N 	   0.000   0.461   0.000
  C 	   0.000   0.246   0.000
  C 	   0.000   0.055   0.000
  C 	   0.000   0.055   0.000
  H 	   0.050  -0.010  -0.008
  H 	  -0.050  -0.010   0.008
  H 	   0.050  -0.010   0.008
  H 	  -0.050  -0.010  -0.008

   Frequency:        895.56
   Force constant:   0.0304
	     X       Y       Z 	
  C 	   0.000  -0.105   0.000
  N 	   0.000   0.039   0.000
  C 	   0.000  -0.001   0.000
  C 	   0.000  -0.063   0.000
  C 	   0.000  -0.063   0.000
  H 	  -0.434   0.163   0.174
  H 	   0.434   0.163  -0.174
  H 	  -0.434   0.163  -0.174
  H 	   0.434   0.163   0.174

   Frequency:       1160.13
   Force constant:   0.0509
	     X       Y       Z 	
  C 	   0.000  -0.042   0.000
  N 	   0.000   0.010   0.000
  C 	   0.000  -0.326   0.000
  C 	   0.000   0.255   0.000
  C 	   0.000   0.255   0.000
  H 	   0.097  -0.133   0.404
  H 	  -0.097  -0.133  -0.404
  H 	   0.097  -0.133  -0.404
  H 	  -0.097  -0.133   0.404

   Frequency:       3244.30
   Force constant:   0.3983
	     X       Y       Z 	
  C 	   0.000  -0.000   0.000
  N 	   0.000   0.000   0.000
  C 	   0.000   0.005   0.000
  C 	   0.000  -0.229   0.000
  C 	   0.000  -0.229   0.000
  H 	   0.223   0.390   0.148
  H 	  -0.223   0.390  -0.148
  H 	   0.223   0.390  -0.148
  H 	  -0.223   0.390   0.148

-------------------------------------------------------------

*** PSI4 exiting successfully. Buy a developer a beer!
