    -----------------------------------------------------------------------
          PSI4: An Open-Source Ab Initio Electronic Structure Package
                              PSI 4.0.0-beta1 Driver

               Git: Rev 8268e5ba0276eef671d5bc4a44cf66fa46407463

    J. M. Turney, A. C. Simmonett, R. M. Parrish, E. G. Hohenstein,
    F. A. Evangelista, J. T. Fermann, B. J. Mintz, L. A. Burns, J. J. Wilke,
    M. L. Abrams, N. J. Russ, M. L. Leininger, C. L. Janssen, E. T. Seidl,
    W. D. Allen, H. F. Schaefer, R. A. King, E. F. Valeev, C. D. Sherrill,
    and T. D. Crawford, WIREs Comput. Mol. Sci., (2011) (doi: 10.1002/wcms.93)

                         Additional Contributions by
    A. E. DePrince, M. Saitow, U. Bozkaya, A. Yu. Sokolov
    -----------------------------------------------------------------------


    Using LocalCommunicator (Number of processes = 1)

    Memory level set to 256.000 MB

  ==> Input File <==

--------------------------------------------------------------------------
#! All-electron MP2 6-31G** geometry optimization of water

memory 250 mb

nucenergy =   9.1622581908184 #TEST
refenergy = -76.2224486598878  #TEST

molecule h2o {
  O
  H 1 1.0
  H 1 1.0 2 106.0
}

set globals {
  basis 6-31G**
  reference rhf
  d_convergence 9
  e_convergence 9
}

optimized_energy = optimize('mp2')

compare_values(nucenergy, h2o.nuclear_repulsion_energy(), 3, "Nuclear repulsion energy")    #TEST
compare_values(refenergy, optimized_energy, 6, "Reference energy")                          #TEST
--------------------------------------------------------------------------

  Memory set to 250.000 MiB by Python script.

*** tstart() called on lawn-143-215-103-161.lawn.gatech.edu
*** at Fri Apr 27 14:04:49 2012

	There are an even number of electrons - assuming singlet.
	Specify the multiplicity with the MULTP option in the
	input if this is incorrect


         ---------------------------------------------------------
                                   SCF
            by Justin Turney, Rob Parrish, and Andy Simmonett
                              RHF Reference
                        1 Threads,    250 MiB Core
         ---------------------------------------------------------

  ==> Geometry <==

    Molecular point group: c2v

    Geometry (in Angstrom), charge = 0, multiplicity = 1:

       Center              X                  Y                   Z       
    ------------   -----------------  -----------------  -----------------
           O          0.000000000000     0.000000000000    -0.067352052049
           H          0.000000000000    -0.798635510047     0.534462971103
           H          0.000000000000     0.798635510047     0.534462971103

  Running in c2v symmetry.

  Nuclear repulsion =    8.798136163619558

  Charge       = 0
  Multiplicity = 1
  Electrons    = 10
  Nalpha       = 5
  Nbeta        = 5

  ==> Algorithm <==

  SCF Algorithm Type is PK.
  DIIS enabled.
  MOM disabled.
  Fractional occupation disabled.
  Guess Type is CORE.
  Energy threshold   = 1.00e-09
  Density threshold  = 1.00e-09
  Integral threshold = 0.00e+00

  ==> Primary Basis <==

  Basis Set: 6-31G**
    Number of shells: 12
    Number of basis function: 25
    Number of Cartesian functions: 25
    Spherical Harmonics?: false
    Max angular momentum: 2

  ==> Pre-Iterations <==

  Minimum eigenvalue in the overlap matrix is 2.3433274359E-02.
  Using Symmetric Orthogonalization.
  SCF Guess: Core (One-Electron) Hamiltonian.

  Initial RHF energy:   -58.76453393937851

   -------------------------------------------------------
    Irrep   Nso     Nmo     Nalpha   Nbeta   Ndocc  Nsocc
   -------------------------------------------------------
     A1        12      12       3       3       3       0
     A2         2       2       0       0       0       0
     B1         4       4       1       1       1       0
     B2         7       7       1       1       1       0
   -------------------------------------------------------
    Total      25      25       5       5       5       0
   -------------------------------------------------------

  ==> Integral Setup <==

 MINTS: Wrapper to libmints.
   by Justin Turney

   Calculation information:
      Number of atoms:                   3
      Number of AO shells:              12
      Number of SO shells:               9
      Number of primitives:             25
      Number of atomic orbitals:        25
      Number of basis functions:        25

      Number of irreps:                  4
      Number of functions per irrep: [  12    2    4    7 ]

      Overlap, kinetic, potential, dipole, and quadrupole integrals
        stored in file 35.

      Computing two-electron integrals...done
      Computed 13617 non-zero two-electron integrals.
        Stored in file 33.

  ==> Iterations <==

                        Total Energy        Delta E     Density RMS

   @RHF iter   1:   -68.36157499160359   -9.59704e+00   0.00000e+00 
	Occupation by irrep:
	         A1    A2    B1    B2 
	DOCC [     3,    0,    0,    2 ]

   @RHF iter   2:   -70.30442177456965   -1.94285e+00   6.34899e-01 DIIS
	Occupation by irrep:
	         A1    A2    B1    B2 
	DOCC [     3,    0,    1,    1 ]

   @RHF iter   3:   -75.61497422488638   -5.31055e+00   6.12479e-01 DIIS
   @RHF iter   4:   -75.98742000064583   -3.72446e-01   2.22696e-02 DIIS
   @RHF iter   5:   -76.01639506344981   -2.89751e-02   1.04841e-02 DIIS
   @RHF iter   6:   -76.01714374596899   -7.48683e-04   1.57885e-03 DIIS
   @RHF iter   7:   -76.01720217102024   -5.84251e-05   6.71037e-04 DIIS
   @RHF iter   8:   -76.01720661487785   -4.44386e-06   9.88835e-05 DIIS
   @RHF iter   9:   -76.01720673110995   -1.16232e-07   1.74654e-05 DIIS
   @RHF iter  10:   -76.01720673344740   -2.33744e-09   3.79864e-06 DIIS
   @RHF iter  11:   -76.01720673355766   -1.10262e-10   1.26788e-06 DIIS
   @RHF iter  12:   -76.01720673356236   -4.70379e-12   1.13129e-07 DIIS
   @RHF iter  13:   -76.01720673356236    0.00000e+00   1.30652e-08 DIIS
   @RHF iter  14:   -76.01720673356239   -2.84217e-14   1.96248e-09 DIIS

  ==> Post-Iterations <==

	Orbital Energies (a.u.)
	-----------------------

	Doubly Occupied:                                                      

	   1A1   -20.567203     2A1    -1.318249     1B2    -0.683594  
	   3A1    -0.558086     1B1    -0.493716  

	Virtual:                                                              

	   4A1     0.202564     2B2     0.293301     3B2     0.991433  
	   5A1     1.046179     6A1     1.131611     2B1     1.169580  
	   4B2     1.295823     7A1     1.401711     1A2     1.796623  
	   8A1     1.828794     3B1     1.928925     9A1     2.510683  
	   5B2     2.519055     6B2     2.720176     4B1     2.928199  
	   2A2     2.938078    10A1     3.294237    11A1     3.621619  
	   7B2     3.864587    12A1     4.089181  

	Final Occupation by Irrep:
	         A1    A2    B1    B2 
	DOCC [     3,    0,    1,    1 ]

  Energy converged.

  @RHF Final Energy:   -76.01720673356239

   => Energetics <=

    Nuclear Repulsion Energy =          8.7981361636195583
    One-Electron Energy =            -122.3889877269089368
    Two-Electron Energy =              37.5736448297269874
    DFT Functional Energy =             0.0000000000000000
    Empirical Dispersion Energy =       0.0000000000000000
    Total Energy =                    -76.0172067335623893

  ==> Properties <==

  Nuclear Dipole Moment: (a.u.)
     X:     0.0000      Y:     0.0000      Z:     1.0018

  Electronic Dipole Moment: (a.u.)
     X:     0.0000      Y:     0.0000      Z:    -0.1396

  Dipole Moment: (a.u.)
     X:     0.0000      Y:     0.0000      Z:     0.8622     Total:     0.8622

  Dipole Moment: (Debye)
     X:     0.0000      Y:     0.0000      Z:     2.1914     Total:     2.1914


  Saving occupied orbitals to File 180.

*** tstop() called on lawn-143-215-103-161.lawn.gatech.edu at Fri Apr 27 14:04:49 2012
Module time:
	user time   =       0.06 seconds =       0.00 minutes
	system time =       0.01 seconds =       0.00 minutes
	total time  =          0 seconds =       0.00 minutes
Total time:
	user time   =       0.06 seconds =       0.00 minutes
	system time =       0.01 seconds =       0.00 minutes
	total time  =          0 seconds =       0.00 minutes

*** tstart() called on lawn-143-215-103-161.lawn.gatech.edu
*** at Fri Apr 27 14:04:49 2012


	**************************************************
	* TRANSQT2: Program to transform integrals from  *
	*           the SO basis to the MO basis.        *
	*                                                *
	*            Daniel, David, & Justin             *
	**************************************************


	Input parameters:
	-----------------
	Wave function   =	MP2
	Backtransform   =	No
	Print Level     =	1
	Print TEIs      =	No
	Reference wfn   =	RHF
	Derivative      =	First
	Delete TEI File =	Yes
	Memory (Mbytes) =	250.0
	Cache Level     =	2
	Cache Type      =	LRU
	Chkpt Parameters:
	--------------------
	Number of irreps     = 4
	Number of SOs        = 25
	Number of MOs        = 25
	Number of active MOs = 25

	Label	# SOs	# FZDC	# DOCC	# SOCC	# VIRT	# FZVR
	-----	-----	------	------	------	------	------
	 A1	   12	    0	    3	    0	    9	    0
	 A2	   2	    0	    0	    0	    2	    0
	 B1	   4	    0	    1	    0	    3	    0
	 B2	   7	    0	    1	    0	    6	    0

	Nuclear Rep. energy (chkpt) =      8.79813616361956
	SCF energy          (chkpt) =    -76.01720673356239

	Presorting SO-basis two-electron integrals.
	Sorting File: SO Ints (pq,rs) nbuckets = 1
	Frozen-core energy =    0.000000000000000
	Starting first half-transformation.
	Sorting half-transformed integrals.
	Starting second half-transformation.
	Two-electron integral transformation complete.

*** tstop() called on lawn-143-215-103-161.lawn.gatech.edu at Fri Apr 27 14:04:49 2012
Module time:
	user time   =       0.01 seconds =       0.00 minutes
	system time =       0.01 seconds =       0.00 minutes
	total time  =          0 seconds =       0.00 minutes
Total time:
	user time   =       0.07 seconds =       0.00 minutes
	system time =       0.02 seconds =       0.00 minutes
	total time  =          0 seconds =       0.00 minutes

*** tstart() called on lawn-143-215-103-161.lawn.gatech.edu
*** at Fri Apr 27 14:04:49 2012


			**************************
			*                        *
			*         CCSORT         *
			*                        *
			**************************


	Input parameters:
	-----------------
	Wave function   =	MP2
	Reference wfn   =	RHF
	Derivative      =	First
	Memory (Mbytes) =	250.0
	AO Basis        =	NONE
	Make (ab|cd)    =	False
	Make unpacked (ab|cd) =	False
	Cache Level     =	2
	Cache Type      =	LRU
	Local CC        =     No


	Chkpt Parameters:
	--------------------
	Number of irreps     = 4
	Number of MOs        = 25
	Number of active MOs = 25

	Label	# MOs	# FZDC	# DOCC	# SOCC	# VIRT	# FZVR
	-----	-----	------	------	------	------	------
	 A1	   12	    0	    3	    0	    9	    0
	 A2	   2	    0	    0	    0	    2	    0
	 B1	   4	    0	    1	    0	    3	    0
	 B2	   7	    0	    1	    0	    6	    0

	Nuclear Rep. energy (chkpt) =      8.79813616361956
	SCF energy          (chkpt) =    -76.01720673356239

	Size of irrep 0 of <ab|cd> integrals:      0.017 (MW) /      0.135 (MB)
	Size of irrep 1 of <ab|cd> integrals:      0.005 (MW) /      0.041 (MB)
	Size of irrep 2 of <ab|cd> integrals:      0.006 (MW) /      0.049 (MB)
	Size of irrep 3 of <ab|cd> integrals:      0.014 (MW) /      0.115 (MB)
	Total:                                     0.043 (MW) /      0.341 (MB)

	Size of irrep 0 of <ia|bc> integrals:      0.005 (MW) /      0.037 (MB)
	Size of irrep 1 of <ia|bc> integrals:      0.001 (MW) /      0.009 (MB)
	Size of irrep 2 of <ia|bc> integrals:      0.002 (MW) /      0.012 (MB)
	Size of irrep 3 of <ia|bc> integrals:      0.003 (MW) /      0.028 (MB)
	Total:                                     0.011 (MW) /      0.086 (MB)

	Size of irrep 0 of tijab amplitudes:       0.001 (MW) /      0.011 (MB)
	Size of irrep 1 of tijab amplitudes:       0.000 (MW) /      0.001 (MB)
	Size of irrep 2 of tijab amplitudes:       0.000 (MW) /      0.004 (MB)
	Size of irrep 3 of tijab amplitudes:       0.001 (MW) /      0.006 (MB)
	Total:                                     0.003 (MW) /      0.022 (MB)


	Sorting File: A <ij|kl> nbuckets = 1
	Sorting File: C <ia|jb> nbuckets = 1
	Sorting File: D <ij|ab> nbuckets = 1
	Sorting File: E <ai|jk> nbuckets = 1
	Sorting File: F <ia|bc> nbuckets = 1
	Sorting File: F <ai|bc> nbuckets = 1
	One-electron energy          =   -122.38898773314702
	Two-electron (AA) energy     =     14.32802148853531
	Two-electron (BB) energy     =     14.32802148853531
	Two-electron (AB) energy     =     23.24562334742981
	Two-electron energy          =     37.57364483596512
	Frozen-core energy (transqt) =      0.00000000000000
	Reference energy             =    -76.01720673356233

*** tstop() called on lawn-143-215-103-161.lawn.gatech.edu at Fri Apr 27 14:04:49 2012
Module time:
	user time   =       0.02 seconds =       0.00 minutes
	system time =       0.03 seconds =       0.00 minutes
	total time  =          0 seconds =       0.00 minutes
Total time:
	user time   =       0.09 seconds =       0.00 minutes
	system time =       0.05 seconds =       0.00 minutes
	total time  =          0 seconds =       0.00 minutes

*** tstart() called on lawn-143-215-103-161.lawn.gatech.edu
*** at Fri Apr 27 14:04:49 2012

			*************************
			*                       *
			*          MP2          *
			*                       *
			*************************

	Nuclear rep. energy     =    8.798136163619558
	SCF energy              =  -76.017206733562389

	Input parameters:
	-----------------
	Wave function 	=	MP2
	Reference WFN 	=	RHF
	Derivative    	=	FIRST
	Cache Level   	=	2
	Cache Type    	=	LRU
	Memory (MB)   	=	250.0
	Print Level   	=	1
	OPDM          	=	NO
	SCS           	=	False
	MP2_OS_SCALE  	=	0.000000
	MP2_SS_SCALE  	=	0.000000

	Scaled_OS correlation energy      =   -0.162309303662672
	Scaled_SS correlation energy      =   -0.016895465503292
	SCS-MP2 correlation energy        =   -0.179204769165964
      * SCS-MP2 total energy              =  -76.196411502728353

	Opposite-spin correlation energy  =   -0.151488683418494
	Same-spin correlation energy      =   -0.050686396509876
	MP2 correlation energy            =   -0.202175079928370
      * MP2 total energy                  =  -76.219381813490756

	Trace of OPDM(2)        =   -0.000000000000000

	Energies re-computed from Fock-adjusted CC density:
	---------------------------------------------------
	One-electron energy        =    0.227130586544654
	IJKL energy                =   -0.659167406796503
	IJKA energy                =   -0.049150043465794
	IJAB energy                =   -0.404350159856739
	IBJA energy                =    0.683361943648217
	MP2 correlation energy    =   -0.202175079926165
	Total MP2 energy          =  -76.219381813488553

	Energies re-computed from Mulliken density:
	-------------------------------------------
	One-electron energy        =    0.227130586544654
	IJKL energy                =   -0.659167406796503
	IJKA energy                =   -0.049150043465794
	IJAB energy                =   -0.435580226827953
	IBJA energy                =    0.714592010619431
	Total two-electron energy  =   -0.429305666470819
	MP2 correlation energy    =   -0.202175079926165
	Total MP2 energy          =  -76.219381813488553

*** tstop() called on lawn-143-215-103-161.lawn.gatech.edu at Fri Apr 27 14:04:49 2012
Module time:
	user time   =       0.02 seconds =       0.00 minutes
	system time =       0.04 seconds =       0.00 minutes
	total time  =          0 seconds =       0.00 minutes
Total time:
	user time   =       0.12 seconds =       0.00 minutes
	system time =       0.09 seconds =       0.00 minutes
	total time  =          0 seconds =       0.00 minutes

*** tstart() called on lawn-143-215-103-161.lawn.gatech.edu
*** at Fri Apr 27 14:04:49 2012

 DERIV: Derivative code.
   by Justin Turney

  Cartesian Displacement SALCs
  By SALC:
  Number of SALCs: 3, nirreps: 1
  Project out translations: False
  Project out rotations: False
	irrep = 0, ncomponent = 1
		0: atom 0, direction z, coef 1.000000
	irrep = 0, ncomponent = 2
		0: atom 1, direction y, coef 0.707107
		1: atom 2, direction y, coef -0.707107
	irrep = 0, ncomponent = 2
		0: atom 1, direction z, coef 0.707107
		1: atom 2, direction z, coef 0.707107

  By Atomic Center:
  Number of atomic centers: 3
   Atomic Center 0:
	x component, size = 0
	y component, size = 0
	z component, size = 1
		0: salc 0, irrep 0, coef 1.000000
   Atomic Center 1:
	x component, size = 0
	y component, size = 1
		0: salc 1, irrep 0, coef 0.707107
	z component, size = 1
		0: salc 2, irrep 0, coef 0.707107
   Atomic Center 2:
	x component, size = 0
	y component, size = 1
		0: salc 1, irrep 0, coef -0.707107
	z component, size = 1
		0: salc 2, irrep 0, coef 0.707107

    Molecular point group: c2v

    Geometry (in Bohr), charge = 0, multiplicity = 1:

       Center              X                  Y                   Z       
    ------------   -----------------  -----------------  -----------------
           O          0.000000000000     0.000000000000    -0.127276932861
           H          0.000000000000    -1.509202393987     1.009988643552
           H          0.000000000000     1.509202393987     1.009988643552

	Presorting MO-basis TPDM.
	Sorting File: MO TPDM (AA|AA) nbuckets = 1
	Starting first half-transformation.
	Sorting half-transformed TPDM.
	First half integral transformation complete.


  -Nuclear Repulsion Energy 1st Derivatives:
     Atom            X                  Y                   Z
    ------   -----------------  -----------------  -----------------
       1        0.000000000000     0.000000000000     2.696405905572
       2        0.000000000000     1.898885984415    -1.348202952786
       3        0.000000000000    -1.898885984415    -1.348202952786


  -One-electron contribution to gradient:
     Atom            X                  Y                   Z
    ------   -----------------  -----------------  -----------------
       1        0.000000000000     0.000000000000    -6.228276450791
       2        0.000000000000    -4.424152230888     3.114138225396
       3        0.000000000000     4.424152230888     3.114138225396


  -Lagrangian contribution to gradient:
     Atom            X                  Y                   Z
    ------   -----------------  -----------------  -----------------
       1        0.000000000000     0.000000000000     0.376781906158
       2        0.000000000000     0.245358992595    -0.188390953079
       3        0.000000000000    -0.245358992595    -0.188390953079


  -Two-electron contribution to gradient:
     Atom            X                  Y                   Z
    ------   -----------------  -----------------  -----------------
       1        0.000000000000     0.000000000000     3.119911240023
       2        0.000000000000     2.246996851145    -1.559955620012
       3        0.000000000000    -2.246996851145    -1.559955620012


  -Total gradient:
     Atom            X                  Y                   Z
    ------   -----------------  -----------------  -----------------
       1        0.000000000000     0.000000000000    -0.035177399038
       2        0.000000000000    -0.032910402733     0.017588699519
       3        0.000000000000     0.032910402733     0.017588699519


*** tstop() called on lawn-143-215-103-161.lawn.gatech.edu at Fri Apr 27 14:04:49 2012
Module time:
	user time   =       0.14 seconds =       0.00 minutes
	system time =       0.03 seconds =       0.00 minutes
	total time  =          0 seconds =       0.00 minutes
Total time:
	user time   =       0.26 seconds =       0.00 minutes
	system time =       0.12 seconds =       0.00 minutes
	total time  =          0 seconds =       0.00 minutes

			----------------------------------
			 OPTKING: for geometry optimizations  
			  - R.A. King,  Bethel University   
			------------------------------------

	Internal coordinates to be generated automatically.
	Detected frag with atoms:  1 2 3
	---Fragment 1 Bond Connectivity---
	 1 : 2 3
	 2 : 1
	 3 : 1

	---Fragment 1 Geometry and Gradient---
	 O           0.0000000000        0.0000000000       -0.1272769329
	 H           0.0000000000       -1.5092023940        1.0099886436
	 H           0.0000000000        1.5092023940        1.0099886436
	             0.0000000000        0.0000000000       -0.0351773990
	             0.0000000000       -0.0329104027        0.0175886995
	             0.0000000000        0.0329104027        0.0175886995

	Previous optimization step data not found.  Starting new optimization.

	---Fragment 1 Intrafragment Coordinates---
	 - Coordinate -           - BOHR/RAD -       - ANG/DEG -
	 R(1,2)           =         1.889726	       1.000000
	 R(1,3)           =         1.889726	       1.000000
	 B(2,1,3)         =         1.850049	     106.000000

	Current energy   :       -76.2193818135

	Generating empirical Hessian (Schlegel '84) for each fragment.
	Going to follow RFO solution 1.
	Projected energy change by RFO approximation:        -0.0031689963

	Back-transformation to cartesian coordinates...
	Successfully converged to displaced geometry.

	---Internal Coordinate Step in ANG or DEG, aJ/ANG or AJ/DEG ---
	 ----------------------------------------------------------------------
	 Coordinate             Previous        Force       Change         New 
	 ----------             --------       ------       ------       ------
	 R(1,2)          =      1.000000    -0.303750    -0.040375     0.959625
	 R(1,3)          =      1.000000    -0.303750    -0.040375     0.959625
	 B(2,1,3)        =    106.000000    -0.000828    -3.748679   102.251321
	 ----------------------------------------------------------------------

  ==> Convergence Check <==

  Measures of convergence in internal coordinates in au.
  Criteria marked as inactive (o), active & met (*), and active & unmet ( ).
  --------------------------------------------------------------------------------------------- ~
   Step     Total Energy     Delta E     MAX Force     RMS Force      MAX Disp      RMS Disp    ~
  --------------------------------------------------------------------------------------------- ~
    Convergence Criteria    1.00e-06 *    3.00e-04 *             o    1.20e-03 *             o  ~
  --------------------------------------------------------------------------------------------- ~
      1     -76.21938181   -7.62e+01      3.69e-02      3.08e-02 o    7.63e-02      7.29e-02 o  ~
  ---------------------------------------------------------------------------------------------

	Writing optimization data to binary file.
	Structure for next step:
	Cartesian Geometry (au)
	    O     0.0000000000   0.0000000000  -0.1278559048
	    H     0.0000000000  -1.4117983028   1.0102781295
	    H     0.0000000000   1.4117983028   1.0102781295
			--------------------------
			 OPTKING Finished Execution 
			--------------------------

*** tstart() called on lawn-143-215-103-161.lawn.gatech.edu
*** at Fri Apr 27 14:04:49 2012

	There are an even number of electrons - assuming singlet.
	Specify the multiplicity with the MULTP option in the
	input if this is incorrect


         ---------------------------------------------------------
                                   SCF
            by Justin Turney, Rob Parrish, and Andy Simmonett
                              RHF Reference
                        1 Threads,    250 MiB Core
         ---------------------------------------------------------

  ==> Geometry <==

    Molecular point group: c2v

    Geometry (in Angstrom), charge = 0, multiplicity = 1:

       Center              X                  Y                   Z       
    ------------   -----------------  -----------------  -----------------
           O          0.000000000000     0.000000000000    -0.067403484562
           H          0.000000000000    -0.747091484966     0.534871106755
           H          0.000000000000     0.747091484966     0.534871106755

  Running in c2v symmetry.

  Nuclear repulsion =    9.177223791997951

  Charge       = 0
  Multiplicity = 1
  Electrons    = 10
  Nalpha       = 5
  Nbeta        = 5

  ==> Algorithm <==

  SCF Algorithm Type is PK.
  DIIS enabled.
  MOM disabled.
  Fractional occupation disabled.
  Guess Type is CORE.
  Energy threshold   = 1.00e-09
  Density threshold  = 1.00e-09
  Integral threshold = 0.00e+00

  ==> Primary Basis <==

  Basis Set: 6-31G**
    Number of shells: 12
    Number of basis function: 25
    Number of Cartesian functions: 25
    Spherical Harmonics?: false
    Max angular momentum: 2

  ==> Pre-Iterations <==

  Minimum eigenvalue in the overlap matrix is 2.1930651927E-02.
  Using Symmetric Orthogonalization.
  SCF Guess: Core (One-Electron) Hamiltonian.

  Initial RHF energy:   -58.64507926551526

   -------------------------------------------------------
    Irrep   Nso     Nmo     Nalpha   Nbeta   Ndocc  Nsocc
   -------------------------------------------------------
     A1        12      12       3       3       3       0
     A2         2       2       0       0       0       0
     B1         4       4       1       1       1       0
     B2         7       7       1       1       1       0
   -------------------------------------------------------
    Total      25      25       5       5       5       0
   -------------------------------------------------------

  ==> Integral Setup <==

 MINTS: Wrapper to libmints.
   by Justin Turney

   Calculation information:
      Number of atoms:                   3
      Number of AO shells:              12
      Number of SO shells:               9
      Number of primitives:             25
      Number of atomic orbitals:        25
      Number of basis functions:        25

      Number of irreps:                  4
      Number of functions per irrep: [  12    2    4    7 ]

      Overlap, kinetic, potential, dipole, and quadrupole integrals
        stored in file 35.

      Computing two-electron integrals...done
      Computed 13617 non-zero two-electron integrals.
        Stored in file 33.

  ==> Iterations <==

                        Total Energy        Delta E     Density RMS

   @RHF iter   1:   -68.26901541648485   -9.62394e+00   0.00000e+00 
	Occupation by irrep:
	         A1    A2    B1    B2 
	DOCC [     4,    0,    0,    1 ]

   @RHF iter   2:   -71.39559476304247   -3.12658e+00   5.27821e-01 DIIS
	Occupation by irrep:
	         A1    A2    B1    B2 
	DOCC [     3,    0,    1,    1 ]

   @RHF iter   3:   -75.76511613416385   -4.36952e+00   5.02107e-01 DIIS
   @RHF iter   4:   -76.00526519799612   -2.40149e-01   1.72380e-02 DIIS
   @RHF iter   5:   -76.02235615353909   -1.70910e-02   7.75136e-03 DIIS
   @RHF iter   6:   -76.02272676390874   -3.70610e-04   1.21268e-03 DIIS
   @RHF iter   7:   -76.02276268171410   -3.59178e-05   5.05724e-04 DIIS
   @RHF iter   8:   -76.02276373801595   -1.05630e-06   7.95600e-05 DIIS
   @RHF iter   9:   -76.02276380276054   -6.47446e-08   2.27831e-05 DIIS
   @RHF iter  10:   -76.02276380429110   -1.53057e-09   3.68247e-06 DIIS
   @RHF iter  11:   -76.02276380429655   -5.44276e-12   1.63399e-07 DIIS
   @RHF iter  12:   -76.02276380429677   -2.27374e-13   3.20309e-08 DIIS
   @RHF iter  13:   -76.02276380429673    4.26326e-14   5.86599e-09 DIIS

  ==> Post-Iterations <==

	Orbital Energies (a.u.)
	-----------------------

	Doubly Occupied:                                                      

	   1A1   -20.562321     2A1    -1.341063     1B2    -0.697904  
	   3A1    -0.572967     1B1    -0.497901  

	Virtual:                                                              

	   4A1     0.211224     2B2     0.303941     3B2     0.994796  
	   5A1     1.090403     6A1     1.133329     2B1     1.168283  
	   4B2     1.294656     7A1     1.423000     8A1     1.799633  
	   1A2     1.808475     3B1     1.917381     9A1     2.569574  
	   5B2     2.588056     6B2     2.801301     2A2     2.963624  
	   4B1     3.002979    10A1     3.367226    11A1     3.703545  
	   7B2     3.931231    12A1     4.097094  

	Final Occupation by Irrep:
	         A1    A2    B1    B2 
	DOCC [     3,    0,    1,    1 ]

  Energy converged.

  @RHF Final Energy:   -76.02276380429673

   => Energetics <=

    Nuclear Repulsion Energy =          9.1772237919979514
    One-Electron Energy =            -123.0556633448709647
    Two-Electron Energy =              37.8556757485762745
    DFT Functional Energy =             0.0000000000000000
    Empirical Dispersion Energy =       0.0000000000000000
    Total Energy =                    -76.0227638042967442

  ==> Properties <==

  Nuclear Dipole Moment: (a.u.)
     X:     0.0000      Y:     0.0000      Z:     1.0025

  Electronic Dipole Moment: (a.u.)
     X:     0.0000      Y:     0.0000      Z:    -0.1273

  Dipole Moment: (a.u.)
     X:     0.0000      Y:     0.0000      Z:     0.8752     Total:     0.8752

  Dipole Moment: (Debye)
     X:     0.0000      Y:     0.0000      Z:     2.2246     Total:     2.2246


  Saving occupied orbitals to File 180.

*** tstop() called on lawn-143-215-103-161.lawn.gatech.edu at Fri Apr 27 14:04:49 2012
Module time:
	user time   =       0.07 seconds =       0.00 minutes
	system time =       0.01 seconds =       0.00 minutes
	total time  =          0 seconds =       0.00 minutes
Total time:
	user time   =       0.33 seconds =       0.01 minutes
	system time =       0.13 seconds =       0.00 minutes
	total time  =          0 seconds =       0.00 minutes

*** tstart() called on lawn-143-215-103-161.lawn.gatech.edu
*** at Fri Apr 27 14:04:49 2012


	**************************************************
	* TRANSQT2: Program to transform integrals from  *
	*           the SO basis to the MO basis.        *
	*                                                *
	*            Daniel, David, & Justin             *
	**************************************************


	Input parameters:
	-----------------
	Wave function   =	MP2
	Backtransform   =	No
	Print Level     =	1
	Print TEIs      =	No
	Reference wfn   =	RHF
	Derivative      =	First
	Delete TEI File =	Yes
	Memory (Mbytes) =	250.0
	Cache Level     =	2
	Cache Type      =	LRU
	Chkpt Parameters:
	--------------------
	Number of irreps     = 4
	Number of SOs        = 25
	Number of MOs        = 25
	Number of active MOs = 25

	Label	# SOs	# FZDC	# DOCC	# SOCC	# VIRT	# FZVR
	-----	-----	------	------	------	------	------
	 A1	   12	    0	    3	    0	    9	    0
	 A2	   2	    0	    0	    0	    2	    0
	 B1	   4	    0	    1	    0	    3	    0
	 B2	   7	    0	    1	    0	    6	    0

	Nuclear Rep. energy (chkpt) =      9.17722379199795
	SCF energy          (chkpt) =    -76.02276380429673

	Presorting SO-basis two-electron integrals.
	Sorting File: SO Ints (pq,rs) nbuckets = 1
	Frozen-core energy =    0.000000000000000
	Starting first half-transformation.
	Sorting half-transformed integrals.
	Starting second half-transformation.
	Two-electron integral transformation complete.

*** tstop() called on lawn-143-215-103-161.lawn.gatech.edu at Fri Apr 27 14:04:49 2012
Module time:
	user time   =       0.01 seconds =       0.00 minutes
	system time =       0.01 seconds =       0.00 minutes
	total time  =          0 seconds =       0.00 minutes
Total time:
	user time   =       0.34 seconds =       0.01 minutes
	system time =       0.14 seconds =       0.00 minutes
	total time  =          0 seconds =       0.00 minutes

*** tstart() called on lawn-143-215-103-161.lawn.gatech.edu
*** at Fri Apr 27 14:04:49 2012


			**************************
			*                        *
			*         CCSORT         *
			*                        *
			**************************


	Input parameters:
	-----------------
	Wave function   =	MP2
	Reference wfn   =	RHF
	Derivative      =	First
	Memory (Mbytes) =	250.0
	AO Basis        =	NONE
	Make (ab|cd)    =	False
	Make unpacked (ab|cd) =	False
	Cache Level     =	2
	Cache Type      =	LRU
	Local CC        =     No


	Chkpt Parameters:
	--------------------
	Number of irreps     = 4
	Number of MOs        = 25
	Number of active MOs = 25

	Label	# MOs	# FZDC	# DOCC	# SOCC	# VIRT	# FZVR
	-----	-----	------	------	------	------	------
	 A1	   12	    0	    3	    0	    9	    0
	 A2	   2	    0	    0	    0	    2	    0
	 B1	   4	    0	    1	    0	    3	    0
	 B2	   7	    0	    1	    0	    6	    0

	Nuclear Rep. energy (chkpt) =      9.17722379199795
	SCF energy          (chkpt) =    -76.02276380429673

	Size of irrep 0 of <ab|cd> integrals:      0.017 (MW) /      0.135 (MB)
	Size of irrep 1 of <ab|cd> integrals:      0.005 (MW) /      0.041 (MB)
	Size of irrep 2 of <ab|cd> integrals:      0.006 (MW) /      0.049 (MB)
	Size of irrep 3 of <ab|cd> integrals:      0.014 (MW) /      0.115 (MB)
	Total:                                     0.043 (MW) /      0.341 (MB)

	Size of irrep 0 of <ia|bc> integrals:      0.005 (MW) /      0.037 (MB)
	Size of irrep 1 of <ia|bc> integrals:      0.001 (MW) /      0.009 (MB)
	Size of irrep 2 of <ia|bc> integrals:      0.002 (MW) /      0.012 (MB)
	Size of irrep 3 of <ia|bc> integrals:      0.003 (MW) /      0.028 (MB)
	Total:                                     0.011 (MW) /      0.086 (MB)

	Size of irrep 0 of tijab amplitudes:       0.001 (MW) /      0.011 (MB)
	Size of irrep 1 of tijab amplitudes:       0.000 (MW) /      0.001 (MB)
	Size of irrep 2 of tijab amplitudes:       0.000 (MW) /      0.004 (MB)
	Size of irrep 3 of tijab amplitudes:       0.001 (MW) /      0.006 (MB)
	Total:                                     0.003 (MW) /      0.022 (MB)


	Sorting File: A <ij|kl> nbuckets = 1
	Sorting File: C <ia|jb> nbuckets = 1
	Sorting File: D <ij|ab> nbuckets = 1
	Sorting File: E <ai|jk> nbuckets = 1
	Sorting File: F <ia|bc> nbuckets = 1
	Sorting File: F <ai|bc> nbuckets = 1
	One-electron energy          =   -123.05566334459974
	Two-electron (AA) energy     =     14.44802155535197
	Two-electron (BB) energy     =     14.44802155535197
	Two-electron (AB) energy     =     23.40765419295310
	Two-electron energy          =     37.85567574830506
	Frozen-core energy (transqt) =      0.00000000000000
	Reference energy             =    -76.02276380429673

*** tstop() called on lawn-143-215-103-161.lawn.gatech.edu at Fri Apr 27 14:04:49 2012
Module time:
	user time   =       0.02 seconds =       0.00 minutes
	system time =       0.04 seconds =       0.00 minutes
	total time  =          0 seconds =       0.00 minutes
Total time:
	user time   =       0.36 seconds =       0.01 minutes
	system time =       0.18 seconds =       0.00 minutes
	total time  =          0 seconds =       0.00 minutes

*** tstart() called on lawn-143-215-103-161.lawn.gatech.edu
*** at Fri Apr 27 14:04:49 2012

			*************************
			*                       *
			*          MP2          *
			*                       *
			*************************

	Nuclear rep. energy     =    9.177223791997951
	SCF energy              =  -76.022763804296730

	Input parameters:
	-----------------
	Wave function 	=	MP2
	Reference WFN 	=	RHF
	Derivative    	=	FIRST
	Cache Level   	=	2
	Cache Type    	=	LRU
	Memory (MB)   	=	250.0
	Print Level   	=	1
	OPDM          	=	NO
	SCS           	=	False
	MP2_OS_SCALE  	=	0.000000
	MP2_SS_SCALE  	=	0.000000

	Scaled_OS correlation energy      =   -0.160080925583958
	Scaled_SS correlation energy      =   -0.016733508560982
	SCS-MP2 correlation energy        =   -0.176814434144940
      * SCS-MP2 total energy              =  -76.199578238441660

	Opposite-spin correlation energy  =   -0.149408863878361
	Same-spin correlation energy      =   -0.050200525682945
	MP2 correlation energy            =   -0.199609389561306
      * MP2 total energy                  =  -76.222373193858033

	Trace of OPDM(2)        =    0.000000000000000

	Energies re-computed from Fock-adjusted CC density:
	---------------------------------------------------
	One-electron energy        =    0.230357536262166
	IJKL energy                =   -0.638975556786681
	IJKA energy                =   -0.051644931499715
	IJAB energy                =   -0.399218779122612
	IBJA energy                =    0.659872341579472
	MP2 correlation energy    =   -0.199609389567370
	Total MP2 energy          =  -76.222373193864101

	Energies re-computed from Mulliken density:
	-------------------------------------------
	One-electron energy        =    0.230357536262166
	IJKL energy                =   -0.638975556786681
	IJKA energy                =   -0.051644931499715
	IJAB energy                =   -0.429071568674714
	IBJA energy                =    0.689725131131575
	Total two-electron energy  =   -0.429966925829536
	MP2 correlation energy    =   -0.199609389567370
	Total MP2 energy          =  -76.222373193864101

*** tstop() called on lawn-143-215-103-161.lawn.gatech.edu at Fri Apr 27 14:04:50 2012
Module time:
	user time   =       0.03 seconds =       0.00 minutes
	system time =       0.04 seconds =       0.00 minutes
	total time  =          1 seconds =       0.02 minutes
Total time:
	user time   =       0.39 seconds =       0.01 minutes
	system time =       0.22 seconds =       0.00 minutes
	total time  =          1 seconds =       0.02 minutes

*** tstart() called on lawn-143-215-103-161.lawn.gatech.edu
*** at Fri Apr 27 14:04:50 2012

 DERIV: Derivative code.
   by Justin Turney

  Cartesian Displacement SALCs
  By SALC:
  Number of SALCs: 3, nirreps: 1
  Project out translations: False
  Project out rotations: False
	irrep = 0, ncomponent = 1
		0: atom 0, direction z, coef 1.000000
	irrep = 0, ncomponent = 2
		0: atom 1, direction y, coef 0.707107
		1: atom 2, direction y, coef -0.707107
	irrep = 0, ncomponent = 2
		0: atom 1, direction z, coef 0.707107
		1: atom 2, direction z, coef 0.707107

  By Atomic Center:
  Number of atomic centers: 3
   Atomic Center 0:
	x component, size = 0
	y component, size = 0
	z component, size = 1
		0: salc 0, irrep 0, coef 1.000000
   Atomic Center 1:
	x component, size = 0
	y component, size = 1
		0: salc 1, irrep 0, coef 0.707107
	z component, size = 1
		0: salc 2, irrep 0, coef 0.707107
   Atomic Center 2:
	x component, size = 0
	y component, size = 1
		0: salc 1, irrep 0, coef -0.707107
	z component, size = 1
		0: salc 2, irrep 0, coef 0.707107

    Molecular point group: c2v

    Geometry (in Bohr), charge = 0, multiplicity = 1:

       Center              X                  Y                   Z       
    ------------   -----------------  -----------------  -----------------
           O          0.000000000000     0.000000000000    -0.127374126225
           H          0.000000000000    -1.411798302796     1.010759908160
           H          0.000000000000     1.411798302796     1.010759908160

	Presorting MO-basis TPDM.
	Sorting File: MO TPDM (AA|AA) nbuckets = 1
	Starting first half-transformation.
	Sorting half-transformed TPDM.
	First half integral transformation complete.


  -Nuclear Repulsion Energy 1st Derivatives:
     Atom            X                  Y                   Z
    ------   -----------------  -----------------  -----------------
       1        0.000000000000     0.000000000000     3.053598707312
       2        0.000000000000     2.019346235421    -1.526799353656
       3        0.000000000000    -2.019346235421    -1.526799353656


  -One-electron contribution to gradient:
     Atom            X                  Y                   Z
    ------   -----------------  -----------------  -----------------
       1        0.000000000000     0.000000000000    -7.059428857776
       2        0.000000000000    -4.539748996567     3.529714428888
       3        0.000000000000     4.539748996567     3.529714428888


  -Lagrangian contribution to gradient:
     Atom            X                  Y                   Z
    ------   -----------------  -----------------  -----------------
       1        0.000000000000     0.000000000000     0.427141230889
       2        0.000000000000     0.249798144793    -0.213570615445
       3        0.000000000000    -0.249798144793    -0.213570615445


  -Two-electron contribution to gradient:
     Atom            X                  Y                   Z
    ------   -----------------  -----------------  -----------------
       1        0.000000000000     0.000000000000     3.577144682309
       2        0.000000000000     2.274050318077    -1.788572341155
       3        0.000000000000    -2.274050318077    -1.788572341155


  -Total gradient:
     Atom            X                  Y                   Z
    ------   -----------------  -----------------  -----------------
       1        0.000000000000     0.000000000000    -0.001544237266
       2        0.000000000000     0.003445701724     0.000772118633
       3        0.000000000000    -0.003445701724     0.000772118633


*** tstop() called on lawn-143-215-103-161.lawn.gatech.edu at Fri Apr 27 14:04:50 2012
Module time:
	user time   =       0.13 seconds =       0.00 minutes
	system time =       0.02 seconds =       0.00 minutes
	total time  =          0 seconds =       0.00 minutes
Total time:
	user time   =       0.52 seconds =       0.01 minutes
	system time =       0.24 seconds =       0.00 minutes
	total time  =          1 seconds =       0.02 minutes

			----------------------------------
			 OPTKING: for geometry optimizations  
			  - R.A. King,  Bethel University   
			------------------------------------

	Previous internal coordinate definitions found.
	---Fragment 1 Geometry and Gradient---
	 O           0.0000000000        0.0000000000       -0.1273741262
	 H           0.0000000000       -1.4117983028        1.0107599082
	 H           0.0000000000        1.4117983028        1.0107599082
	             0.0000000000        0.0000000000       -0.0015442373
	             0.0000000000        0.0034457017        0.0007721186
	             0.0000000000       -0.0034457017        0.0007721186

	---Fragment 1 Intrafragment Coordinates---
	 - Coordinate -           - BOHR/RAD -       - ANG/DEG -
	 R(1,2)           =         1.813429	       0.959625
	 R(1,3)           =         1.813429	       0.959625
	 B(2,1,3)         =         1.784622	     102.251321

	Current energy   :       -76.2223731939

	Energy change for the previous step:
		Projected    :        -0.0031689963
		Actual       :        -0.0029913804
	Energy ratio indicates good step: Trust radius increased to 8.000e-01.


	Performing BFGS update with previous 1 gradient(s).
	Going to follow RFO solution 1.
	Projected energy change by RFO approximation:        -0.0000745126

	Back-transformation to cartesian coordinates...
	Successfully converged to displaced geometry.

	---Internal Coordinate Step in ANG or DEG, aJ/ANG or AJ/DEG ---
	 ----------------------------------------------------------------------
	 Coordinate             Previous        Force       Change         New 
	 ----------             --------       ------       ------       ------
	 R(1,2)          =      0.959625     0.018108     0.001569     0.961194
	 R(1,3)          =      0.959625     0.018108     0.001569     0.961194
	 B(2,1,3)        =    102.251321     0.000381     1.554685   103.806006
	 ----------------------------------------------------------------------

  ==> Convergence Check <==

  Measures of convergence in internal coordinates in au.
  Criteria marked as inactive (o), active & met (*), and active & unmet ( ).
  ---------------------------------------------------------------------------------------------
   Step     Total Energy     Delta E     MAX Force     RMS Force      MAX Disp      RMS Disp   
  ---------------------------------------------------------------------------------------------
    Convergence Criteria    1.00e-06 *    3.00e-04 *             o    1.20e-03 *             o
  ---------------------------------------------------------------------------------------------
      2     -76.22237319   -2.99e-03      5.01e-03      3.40e-03 o    2.71e-02      1.59e-02 o  ~
  ---------------------------------------------------------------------------------------------

	Writing optimization data to binary file.
	Structure for next step:
	Cartesian Geometry (au)
	    O     0.0000000000   0.0000000000  -0.1157549266
	    H     0.0000000000  -1.4294426515   1.0049503083
	    H     0.0000000000   1.4294426515   1.0049503083
			--------------------------
			 OPTKING Finished Execution 
			--------------------------

*** tstart() called on lawn-143-215-103-161.lawn.gatech.edu
*** at Fri Apr 27 14:04:50 2012

	There are an even number of electrons - assuming singlet.
	Specify the multiplicity with the MULTP option in the
	input if this is incorrect


         ---------------------------------------------------------
                                   SCF
            by Justin Turney, Rob Parrish, and Andy Simmonett
                              RHF Reference
                        1 Threads,    250 MiB Core
         ---------------------------------------------------------

  ==> Geometry <==

    Molecular point group: c2v

    Geometry (in Angstrom), charge = 0, multiplicity = 1:

       Center              X                  Y                   Z       
    ------------   -----------------  -----------------  -----------------
           O          0.000000000000     0.000000000000    -0.066371302255
           H          0.000000000000    -0.756428472151     0.526680365624
           H          0.000000000000     0.756428472151     0.526680365624

  Running in c2v symmetry.

  Nuclear repulsion =    9.158449099400521

  Charge       = 0
  Multiplicity = 1
  Electrons    = 10
  Nalpha       = 5
  Nbeta        = 5

  ==> Algorithm <==

  SCF Algorithm Type is PK.
  DIIS enabled.
  MOM disabled.
  Fractional occupation disabled.
  Guess Type is CORE.
  Energy threshold   = 1.00e-09
  Density threshold  = 1.00e-09
  Integral threshold = 0.00e+00

  ==> Primary Basis <==

  Basis Set: 6-31G**
    Number of shells: 12
    Number of basis function: 25
    Number of Cartesian functions: 25
    Spherical Harmonics?: false
    Max angular momentum: 2

  ==> Pre-Iterations <==

  Minimum eigenvalue in the overlap matrix is 2.2017838179E-02.
  Using Symmetric Orthogonalization.
  SCF Guess: Core (One-Electron) Hamiltonian.

  Initial RHF energy:   -58.65247059252635

   -------------------------------------------------------
    Irrep   Nso     Nmo     Nalpha   Nbeta   Ndocc  Nsocc
   -------------------------------------------------------
     A1        12      12       3       3       3       0
     A2         2       2       0       0       0       0
     B1         4       4       1       1       1       0
     B2         7       7       1       1       1       0
   -------------------------------------------------------
    Total      25      25       5       5       5       0
   -------------------------------------------------------

  ==> Integral Setup <==

 MINTS: Wrapper to libmints.
   by Justin Turney

   Calculation information:
      Number of atoms:                   3
      Number of AO shells:              12
      Number of SO shells:               9
      Number of primitives:             25
      Number of atomic orbitals:        25
      Number of basis functions:        25

      Number of irreps:                  4
      Number of functions per irrep: [  12    2    4    7 ]

      Overlap, kinetic, potential, dipole, and quadrupole integrals
        stored in file 35.

      Computing two-electron integrals...done
      Computed 13617 non-zero two-electron integrals.
        Stored in file 33.

  ==> Iterations <==

                        Total Energy        Delta E     Density RMS

   @RHF iter   1:   -68.27702835976439   -9.62456e+00   0.00000e+00 
	Occupation by irrep:
	         A1    A2    B1    B2 
	DOCC [     4,    0,    0,    1 ]

   @RHF iter   2:   -71.40993023568782   -3.13290e+00   5.27220e-01 DIIS
	Occupation by irrep:
	         A1    A2    B1    B2 
	DOCC [     3,    0,    1,    1 ]

   @RHF iter   3:   -75.76818402142700   -4.35825e+00   5.01548e-01 DIIS
   @RHF iter   4:   -76.00562690618221   -2.37443e-01   1.71518e-02 DIIS
   @RHF iter   5:   -76.02245005702076   -1.68232e-02   7.69941e-03 DIIS
   @RHF iter   6:   -76.02281879420562   -3.68737e-04   1.21654e-03 DIIS
   @RHF iter   7:   -76.02285487076637   -3.60766e-05   5.12149e-04 DIIS
   @RHF iter   8:   -76.02285593090261   -1.06014e-06   8.05778e-05 DIIS
   @RHF iter   9:   -76.02285599401409   -6.31115e-08   2.26241e-05 DIIS
   @RHF iter  10:   -76.02285599553170   -1.51761e-09   3.66646e-06 DIIS
   @RHF iter  11:   -76.02285599553701   -5.31486e-12   1.61789e-07 DIIS
   @RHF iter  12:   -76.02285599553716   -1.42109e-13   3.08796e-08 DIIS
   @RHF iter  13:   -76.02285599553721   -5.68434e-14   5.69178e-09 DIIS

  ==> Post-Iterations <==

	Orbital Energies (a.u.)
	-----------------------

	Doubly Occupied:                                                      

	   1A1   -20.561727     2A1    -1.338891     1B2    -0.700000  
	   3A1    -0.569480     1B1    -0.497160  

	Virtual:                                                              

	   4A1     0.211161     2B2     0.303648     3B2     0.999825  
	   5A1     1.085466     6A1     1.132330     2B1     1.168748  
	   4B2     1.294664     7A1     1.416478     1A2     1.804765  
	   8A1     1.812019     3B1     1.922715     9A1     2.566096  
	   5B2     2.576624     6B2     2.798424     2A2     2.971090  
	   4B1     2.990541    10A1     3.368722    11A1     3.700910  
	   7B2     3.923228    12A1     4.102882  

	Final Occupation by Irrep:
	         A1    A2    B1    B2 
	DOCC [     3,    0,    1,    1 ]

  Energy converged.

  @RHF Final Energy:   -76.02285599553721

   => Energetics <=

    Nuclear Repulsion Energy =          9.1584490994005208
    One-Electron Energy =            -123.0280945428991259
    Two-Electron Energy =              37.8467894479613847
    DFT Functional Energy =             0.0000000000000000
    Empirical Dispersion Energy =       0.0000000000000000
    Total Energy =                    -76.0228559955372134

  ==> Properties <==

  Nuclear Dipole Moment: (a.u.)
     X:     0.0000      Y:     0.0000      Z:     0.9872

  Electronic Dipole Moment: (a.u.)
     X:     0.0000      Y:     0.0000      Z:    -0.1217

  Dipole Moment: (a.u.)
     X:     0.0000      Y:     0.0000      Z:     0.8655     Total:     0.8655

  Dipole Moment: (Debye)
     X:     0.0000      Y:     0.0000      Z:     2.1998     Total:     2.1998


  Saving occupied orbitals to File 180.

*** tstop() called on lawn-143-215-103-161.lawn.gatech.edu at Fri Apr 27 14:04:50 2012
Module time:
	user time   =       0.06 seconds =       0.00 minutes
	system time =       0.01 seconds =       0.00 minutes
	total time  =          0 seconds =       0.00 minutes
Total time:
	user time   =       0.59 seconds =       0.01 minutes
	system time =       0.25 seconds =       0.00 minutes
	total time  =          1 seconds =       0.02 minutes

*** tstart() called on lawn-143-215-103-161.lawn.gatech.edu
*** at Fri Apr 27 14:04:50 2012


	**************************************************
	* TRANSQT2: Program to transform integrals from  *
	*           the SO basis to the MO basis.        *
	*                                                *
	*            Daniel, David, & Justin             *
	**************************************************


	Input parameters:
	-----------------
	Wave function   =	MP2
	Backtransform   =	No
	Print Level     =	1
	Print TEIs      =	No
	Reference wfn   =	RHF
	Derivative      =	First
	Delete TEI File =	Yes
	Memory (Mbytes) =	250.0
	Cache Level     =	2
	Cache Type      =	LRU
	Chkpt Parameters:
	--------------------
	Number of irreps     = 4
	Number of SOs        = 25
	Number of MOs        = 25
	Number of active MOs = 25

	Label	# SOs	# FZDC	# DOCC	# SOCC	# VIRT	# FZVR
	-----	-----	------	------	------	------	------
	 A1	   12	    0	    3	    0	    9	    0
	 A2	   2	    0	    0	    0	    2	    0
	 B1	   4	    0	    1	    0	    3	    0
	 B2	   7	    0	    1	    0	    6	    0

	Nuclear Rep. energy (chkpt) =      9.15844909940052
	SCF energy          (chkpt) =    -76.02285599553721

	Presorting SO-basis two-electron integrals.
	Sorting File: SO Ints (pq,rs) nbuckets = 1
	Frozen-core energy =    0.000000000000000
	Starting first half-transformation.
	Sorting half-transformed integrals.
	Starting second half-transformation.
	Two-electron integral transformation complete.

*** tstop() called on lawn-143-215-103-161.lawn.gatech.edu at Fri Apr 27 14:04:50 2012
Module time:
	user time   =       0.01 seconds =       0.00 minutes
	system time =       0.01 seconds =       0.00 minutes
	total time  =          0 seconds =       0.00 minutes
Total time:
	user time   =       0.60 seconds =       0.01 minutes
	system time =       0.26 seconds =       0.00 minutes
	total time  =          1 seconds =       0.02 minutes

*** tstart() called on lawn-143-215-103-161.lawn.gatech.edu
*** at Fri Apr 27 14:04:50 2012


			**************************
			*                        *
			*         CCSORT         *
			*                        *
			**************************


	Input parameters:
	-----------------
	Wave function   =	MP2
	Reference wfn   =	RHF
	Derivative      =	First
	Memory (Mbytes) =	250.0
	AO Basis        =	NONE
	Make (ab|cd)    =	False
	Make unpacked (ab|cd) =	False
	Cache Level     =	2
	Cache Type      =	LRU
	Local CC        =     No


	Chkpt Parameters:
	--------------------
	Number of irreps     = 4
	Number of MOs        = 25
	Number of active MOs = 25

	Label	# MOs	# FZDC	# DOCC	# SOCC	# VIRT	# FZVR
	-----	-----	------	------	------	------	------
	 A1	   12	    0	    3	    0	    9	    0
	 A2	   2	    0	    0	    0	    2	    0
	 B1	   4	    0	    1	    0	    3	    0
	 B2	   7	    0	    1	    0	    6	    0

	Nuclear Rep. energy (chkpt) =      9.15844909940052
	SCF energy          (chkpt) =    -76.02285599553721

	Size of irrep 0 of <ab|cd> integrals:      0.017 (MW) /      0.135 (MB)
	Size of irrep 1 of <ab|cd> integrals:      0.005 (MW) /      0.041 (MB)
	Size of irrep 2 of <ab|cd> integrals:      0.006 (MW) /      0.049 (MB)
	Size of irrep 3 of <ab|cd> integrals:      0.014 (MW) /      0.115 (MB)
	Total:                                     0.043 (MW) /      0.341 (MB)

	Size of irrep 0 of <ia|bc> integrals:      0.005 (MW) /      0.037 (MB)
	Size of irrep 1 of <ia|bc> integrals:      0.001 (MW) /      0.009 (MB)
	Size of irrep 2 of <ia|bc> integrals:      0.002 (MW) /      0.012 (MB)
	Size of irrep 3 of <ia|bc> integrals:      0.003 (MW) /      0.028 (MB)
	Total:                                     0.011 (MW) /      0.086 (MB)

	Size of irrep 0 of tijab amplitudes:       0.001 (MW) /      0.011 (MB)
	Size of irrep 1 of tijab amplitudes:       0.000 (MW) /      0.001 (MB)
	Size of irrep 2 of tijab amplitudes:       0.000 (MW) /      0.004 (MB)
	Size of irrep 3 of tijab amplitudes:       0.001 (MW) /      0.006 (MB)
	Total:                                     0.003 (MW) /      0.022 (MB)


	Sorting File: A <ij|kl> nbuckets = 1
	Sorting File: C <ia|jb> nbuckets = 1
	Sorting File: D <ij|ab> nbuckets = 1
	Sorting File: E <ai|jk> nbuckets = 1
	Sorting File: F <ia|bc> nbuckets = 1
	Sorting File: F <ai|bc> nbuckets = 1
	One-electron energy          =   -123.02809454252443
	Two-electron (AA) energy     =     14.44432385849745
	Two-electron (BB) energy     =     14.44432385849745
	Two-electron (AB) energy     =     23.40246558908929
	Two-electron energy          =     37.84678944758674
	Frozen-core energy (transqt) =      0.00000000000000
	Reference energy             =    -76.02285599553716

*** tstop() called on lawn-143-215-103-161.lawn.gatech.edu at Fri Apr 27 14:04:50 2012
Module time:
	user time   =       0.02 seconds =       0.00 minutes
	system time =       0.04 seconds =       0.00 minutes
	total time  =          0 seconds =       0.00 minutes
Total time:
	user time   =       0.62 seconds =       0.01 minutes
	system time =       0.30 seconds =       0.01 minutes
	total time  =          1 seconds =       0.02 minutes

*** tstart() called on lawn-143-215-103-161.lawn.gatech.edu
*** at Fri Apr 27 14:04:50 2012

			*************************
			*                       *
			*          MP2          *
			*                       *
			*************************

	Nuclear rep. energy     =    9.158449099400521
	SCF energy              =  -76.022855995537213

	Input parameters:
	-----------------
	Wave function 	=	MP2
	Reference WFN 	=	RHF
	Derivative    	=	FIRST
	Cache Level   	=	2
	Cache Type    	=	LRU
	Memory (MB)   	=	250.0
	Print Level   	=	1
	OPDM          	=	NO
	SCS           	=	False
	MP2_OS_SCALE  	=	0.000000
	MP2_SS_SCALE  	=	0.000000

	Scaled_OS correlation energy      =   -0.160071510764520
	Scaled_SS correlation energy      =   -0.016730729541213
	SCS-MP2 correlation energy        =   -0.176802240305733
      * SCS-MP2 total energy              =  -76.199658235842946

	Opposite-spin correlation energy  =   -0.149400076713552
	Same-spin correlation energy      =   -0.050192188623639
	MP2 correlation energy            =   -0.199592265337191
      * MP2 total energy                  =  -76.222448260874401

	Trace of OPDM(2)        =    0.000000000000000

	Energies re-computed from Fock-adjusted CC density:
	---------------------------------------------------
	One-electron energy        =    0.230419176933289
	IJKL energy                =   -0.639007366563589
	IJKA energy                =   -0.051700820604350
	IJAB energy                =   -0.399184530674382
	IBJA energy                =    0.659881275566216
	MP2 correlation energy    =   -0.199592265342816
	Total MP2 energy          =  -76.222448260880029

	Energies re-computed from Mulliken density:
	-------------------------------------------
	One-electron energy        =    0.230419176933289
	IJKL energy                =   -0.639007366563589
	IJKA energy                =   -0.051700820604350
	IJAB energy                =   -0.429034027886053
	IBJA energy                =    0.689730772777887
	Total two-electron energy  =   -0.430011442276105
	MP2 correlation energy    =   -0.199592265342816
	Total MP2 energy          =  -76.222448260880029

*** tstop() called on lawn-143-215-103-161.lawn.gatech.edu at Fri Apr 27 14:04:50 2012
Module time:
	user time   =       0.03 seconds =       0.00 minutes
	system time =       0.03 seconds =       0.00 minutes
	total time  =          0 seconds =       0.00 minutes
Total time:
	user time   =       0.65 seconds =       0.01 minutes
	system time =       0.33 seconds =       0.01 minutes
	total time  =          1 seconds =       0.02 minutes

*** tstart() called on lawn-143-215-103-161.lawn.gatech.edu
*** at Fri Apr 27 14:04:50 2012

 DERIV: Derivative code.
   by Justin Turney

  Cartesian Displacement SALCs
  By SALC:
  Number of SALCs: 3, nirreps: 1
  Project out translations: False
  Project out rotations: False
	irrep = 0, ncomponent = 1
		0: atom 0, direction z, coef 1.000000
	irrep = 0, ncomponent = 2
		0: atom 1, direction y, coef 0.707107
		1: atom 2, direction y, coef -0.707107
	irrep = 0, ncomponent = 2
		0: atom 1, direction z, coef 0.707107
		1: atom 2, direction z, coef 0.707107

  By Atomic Center:
  Number of atomic centers: 3
   Atomic Center 0:
	x component, size = 0
	y component, size = 0
	z component, size = 1
		0: salc 0, irrep 0, coef 1.000000
   Atomic Center 1:
	x component, size = 0
	y component, size = 1
		0: salc 1, irrep 0, coef 0.707107
	z component, size = 1
		0: salc 2, irrep 0, coef 0.707107
   Atomic Center 2:
	x component, size = 0
	y component, size = 1
		0: salc 1, irrep 0, coef -0.707107
	z component, size = 1
		0: salc 2, irrep 0, coef 0.707107

    Molecular point group: c2v

    Geometry (in Bohr), charge = 0, multiplicity = 1:

       Center              X                  Y                   Z       
    ------------   -----------------  -----------------  -----------------
           O          0.000000000000     0.000000000000    -0.125423584344
           H          0.000000000000    -1.429442651482     0.995281650598
           H          0.000000000000     1.429442651482     0.995281650598

	Presorting MO-basis TPDM.
	Sorting File: MO TPDM (AA|AA) nbuckets = 1
	Starting first half-transformation.
	Sorting half-transformed TPDM.
	First half integral transformation complete.


  -Nuclear Repulsion Energy 1st Derivatives:
     Atom            X                  Y                   Z
    ------   -----------------  -----------------  -----------------
       1        0.000000000000     0.000000000000     2.992136037095
       2        0.000000000000     2.030562951563    -1.496068018548
       3        0.000000000000    -2.030562951563    -1.496068018548


  -One-electron contribution to gradient:
     Atom            X                  Y                   Z
    ------   -----------------  -----------------  -----------------
       1        0.000000000000     0.000000000000    -6.885488753406
       2        0.000000000000    -4.597636047932     3.442744376703
       3        0.000000000000     4.597636047932     3.442744376703


  -Lagrangian contribution to gradient:
     Atom            X                  Y                   Z
    ------   -----------------  -----------------  -----------------
       1        0.000000000000     0.000000000000     0.416718261772
       2        0.000000000000     0.253709926020    -0.208359130886
       3        0.000000000000    -0.253709926020    -0.208359130886


  -Two-electron contribution to gradient:
     Atom            X                  Y                   Z
    ------   -----------------  -----------------  -----------------
       1        0.000000000000     0.000000000000     3.476019207542
       2        0.000000000000     2.313102753836    -1.738009603771
       3        0.000000000000    -2.313102753836    -1.738009603771


  -Total gradient:
     Atom            X                  Y                   Z
    ------   -----------------  -----------------  -----------------
       1        0.000000000000     0.000000000000    -0.000615246997
       2        0.000000000000    -0.000260416514     0.000307623498
       3        0.000000000000     0.000260416514     0.000307623498


*** tstop() called on lawn-143-215-103-161.lawn.gatech.edu at Fri Apr 27 14:04:50 2012
Module time:
	user time   =       0.14 seconds =       0.00 minutes
	system time =       0.02 seconds =       0.00 minutes
	total time  =          0 seconds =       0.00 minutes
Total time:
	user time   =       0.79 seconds =       0.01 minutes
	system time =       0.35 seconds =       0.01 minutes
	total time  =          1 seconds =       0.02 minutes

			----------------------------------
			 OPTKING: for geometry optimizations  
			  - R.A. King,  Bethel University   
			------------------------------------

	Previous internal coordinate definitions found.
	---Fragment 1 Geometry and Gradient---
	 O           0.0000000000        0.0000000000       -0.1254235843
	 H           0.0000000000       -1.4294426515        0.9952816506
	 H           0.0000000000        1.4294426515        0.9952816506
	             0.0000000000        0.0000000000       -0.0006152470
	             0.0000000000       -0.0002604165        0.0003076235
	             0.0000000000        0.0002604165        0.0003076235

	---Fragment 1 Intrafragment Coordinates---
	 - Coordinate -           - BOHR/RAD -       - ANG/DEG -
	 R(1,2)           =         1.816394	       0.961194
	 R(1,3)           =         1.816394	       0.961194
	 B(2,1,3)         =         1.811757	     103.806006

	Current energy   :       -76.2224482609

	Energy change for the previous step:
		Projected    :        -0.0000745126
		Actual       :        -0.0000750670
	Energy ratio indicates good step: Trust radius increased to 1.000e+00.


	Performing BFGS update with previous 1 gradient(s).
	Going to follow RFO solution 1.
	Projected energy change by RFO approximation:        -0.0000004343

	Back-transformation to cartesian coordinates...
	Successfully converged to displaced geometry.

	---Internal Coordinate Step in ANG or DEG, aJ/ANG or AJ/DEG ---
	 ----------------------------------------------------------------------
	 Coordinate             Previous        Force       Change         New 
	 ----------             --------       ------       ------       ------
	 R(1,2)          =      0.961194    -0.003252    -0.000457     0.960737
	 R(1,3)          =      0.961194    -0.003252    -0.000457     0.960737
	 B(2,1,3)        =    103.806006     0.000011     0.072434   103.878440
	 ----------------------------------------------------------------------

  ==> Convergence Check <==

  Measures of convergence in internal coordinates in au.
  Criteria marked as inactive (o), active & met (*), and active & unmet ( ).
  ---------------------------------------------------------------------------------------------
   Step     Total Energy     Delta E     MAX Force     RMS Force      MAX Disp      RMS Disp   
  ---------------------------------------------------------------------------------------------
    Convergence Criteria    1.00e-06 *    3.00e-04 *             o    1.20e-03 *             o
  ---------------------------------------------------------------------------------------------
      3     -76.22244826   -7.51e-05      3.95e-04      3.33e-04 o    1.26e-03      1.01e-03 o  ~
  ---------------------------------------------------------------------------------------------

	Writing optimization data to binary file.
	Structure for next step:
	Cartesian Geometry (au)
	    O     0.0000000000   0.0000000000  -0.1244661952
	    H     0.0000000000  -1.4294709369   0.9948029560
	    H     0.0000000000   1.4294709369   0.9948029560
			--------------------------
			 OPTKING Finished Execution 
			--------------------------

*** tstart() called on lawn-143-215-103-161.lawn.gatech.edu
*** at Fri Apr 27 14:04:50 2012

	There are an even number of electrons - assuming singlet.
	Specify the multiplicity with the MULTP option in the
	input if this is incorrect


         ---------------------------------------------------------
                                   SCF
            by Justin Turney, Rob Parrish, and Andy Simmonett
                              RHF Reference
                        1 Threads,    250 MiB Core
         ---------------------------------------------------------

  ==> Geometry <==

    Molecular point group: c2v

    Geometry (in Angstrom), charge = 0, multiplicity = 1:

       Center              X                  Y                   Z       
    ------------   -----------------  -----------------  -----------------
           O          0.000000000000     0.000000000000    -0.066286253357
           H          0.000000000000    -0.756443440132     0.526005471762
           H          0.000000000000     0.756443440132     0.526005471762

  Running in c2v symmetry.

  Nuclear repulsion =    9.162631419239446

  Charge       = 0
  Multiplicity = 1
  Electrons    = 10
  Nalpha       = 5
  Nbeta        = 5

  ==> Algorithm <==

  SCF Algorithm Type is PK.
  DIIS enabled.
  MOM disabled.
  Fractional occupation disabled.
  Guess Type is CORE.
  Energy threshold   = 1.00e-09
  Density threshold  = 1.00e-09
  Integral threshold = 0.00e+00

  ==> Primary Basis <==

  Basis Set: 6-31G**
    Number of shells: 12
    Number of basis function: 25
    Number of Cartesian functions: 25
    Spherical Harmonics?: false
    Max angular momentum: 2

  ==> Pre-Iterations <==

  Minimum eigenvalue in the overlap matrix is 2.2003433357E-02.
  Using Symmetric Orthogonalization.
  SCF Guess: Core (One-Electron) Hamiltonian.

  Initial RHF energy:   -58.65128493507341

   -------------------------------------------------------
    Irrep   Nso     Nmo     Nalpha   Nbeta   Ndocc  Nsocc
   -------------------------------------------------------
     A1        12      12       3       3       3       0
     A2         2       2       0       0       0       0
     B1         4       4       1       1       1       0
     B2         7       7       1       1       1       0
   -------------------------------------------------------
    Total      25      25       5       5       5       0
   -------------------------------------------------------

  ==> Integral Setup <==

 MINTS: Wrapper to libmints.
   by Justin Turney

   Calculation information:
      Number of atoms:                   3
      Number of AO shells:              12
      Number of SO shells:               9
      Number of primitives:             25
      Number of atomic orbitals:        25
      Number of basis functions:        25

      Number of irreps:                  4
      Number of functions per irrep: [  12    2    4    7 ]

      Overlap, kinetic, potential, dipole, and quadrupole integrals
        stored in file 35.

      Computing two-electron integrals...done
      Computed 13617 non-zero two-electron integrals.
        Stored in file 33.

  ==> Iterations <==

                        Total Energy        Delta E     Density RMS

   @RHF iter   1:   -68.27618549256147   -9.62490e+00   0.00000e+00 
	Occupation by irrep:
	         A1    A2    B1    B2 
	DOCC [     4,    0,    0,    1 ]

   @RHF iter   2:   -71.41059473191667   -3.13441e+00   5.27523e-01 DIIS
	Occupation by irrep:
	         A1    A2    B1    B2 
	DOCC [     3,    0,    1,    1 ]

   @RHF iter   3:   -75.76820873174835   -4.35761e+00   5.01865e-01 DIIS
   @RHF iter   4:   -76.00567646198502   -2.37468e-01   1.71542e-02 DIIS
   @RHF iter   5:   -76.02248946762606   -1.68130e-02   7.69581e-03 DIIS
   @RHF iter   6:   -76.02285743732250   -3.67970e-04   1.21587e-03 DIIS
   @RHF iter   7:   -76.02289340476155   -3.59674e-05   5.11693e-04 DIIS
   @RHF iter   8:   -76.02289445927582   -1.05451e-06   8.04548e-05 DIIS
   @RHF iter   9:   -76.02289452191685   -6.26410e-08   2.25409e-05 DIIS
   @RHF iter  10:   -76.02289452342487   -1.50801e-09   3.65816e-06 DIIS
   @RHF iter  11:   -76.02289452343008   -5.21538e-12   1.60657e-07 DIIS
   @RHF iter  12:   -76.02289452343028   -1.98952e-13   3.05358e-08 DIIS
   @RHF iter  13:   -76.02289452343030   -1.42109e-14   5.63658e-09 DIIS

  ==> Post-Iterations <==

	Orbital Energies (a.u.)
	-----------------------

	Doubly Occupied:                                                      

	   1A1   -20.561604     2A1    -1.339061     1B2    -0.700378  
	   3A1    -0.569414     1B1    -0.497162  

	Virtual:                                                              

	   4A1     0.211270     2B2     0.303775     3B2     1.000303  
	   5A1     1.085614     6A1     1.132387     2B1     1.168762  
	   4B2     1.294679     7A1     1.416267     1A2     1.804660  
	   8A1     1.812599     3B1     1.922994     9A1     2.566657  
	   5B2     2.576683     6B2     2.799495     2A2     2.972074  
	   4B1     2.990607    10A1     3.369758    11A1     3.701988  
	   7B2     3.923666    12A1     4.103531  

	Final Occupation by Irrep:
	         A1    A2    B1    B2 
	DOCC [     3,    0,    1,    1 ]

  Energy converged.

  @RHF Final Energy:   -76.02289452343030

   => Energetics <=

    Nuclear Repulsion Energy =          9.1626314192394460
    One-Electron Energy =            -123.0358134106954253
    Two-Electron Energy =              37.8502874680256909
    DFT Functional Energy =             0.0000000000000000
    Empirical Dispersion Energy =       0.0000000000000000
    Total Energy =                    -76.0228945234302955

  ==> Properties <==

  Nuclear Dipole Moment: (a.u.)
     X:     0.0000      Y:     0.0000      Z:     0.9859

  Electronic Dipole Moment: (a.u.)
     X:     0.0000      Y:     0.0000      Z:    -0.1211

  Dipole Moment: (a.u.)
     X:     0.0000      Y:     0.0000      Z:     0.8648     Total:     0.8648

  Dipole Moment: (Debye)
     X:     0.0000      Y:     0.0000      Z:     2.1982     Total:     2.1982


  Saving occupied orbitals to File 180.

*** tstop() called on lawn-143-215-103-161.lawn.gatech.edu at Fri Apr 27 14:04:50 2012
Module time:
	user time   =       0.06 seconds =       0.00 minutes
	system time =       0.01 seconds =       0.00 minutes
	total time  =          0 seconds =       0.00 minutes
Total time:
	user time   =       0.85 seconds =       0.01 minutes
	system time =       0.36 seconds =       0.01 minutes
	total time  =          1 seconds =       0.02 minutes

*** tstart() called on lawn-143-215-103-161.lawn.gatech.edu
*** at Fri Apr 27 14:04:50 2012


	**************************************************
	* TRANSQT2: Program to transform integrals from  *
	*           the SO basis to the MO basis.        *
	*                                                *
	*            Daniel, David, & Justin             *
	**************************************************


	Input parameters:
	-----------------
	Wave function   =	MP2
	Backtransform   =	No
	Print Level     =	1
	Print TEIs      =	No
	Reference wfn   =	RHF
	Derivative      =	First
	Delete TEI File =	Yes
	Memory (Mbytes) =	250.0
	Cache Level     =	2
	Cache Type      =	LRU
	Chkpt Parameters:
	--------------------
	Number of irreps     = 4
	Number of SOs        = 25
	Number of MOs        = 25
	Number of active MOs = 25

	Label	# SOs	# FZDC	# DOCC	# SOCC	# VIRT	# FZVR
	-----	-----	------	------	------	------	------
	 A1	   12	    0	    3	    0	    9	    0
	 A2	   2	    0	    0	    0	    2	    0
	 B1	   4	    0	    1	    0	    3	    0
	 B2	   7	    0	    1	    0	    6	    0

	Nuclear Rep. energy (chkpt) =      9.16263141923945
	SCF energy          (chkpt) =    -76.02289452343030

	Presorting SO-basis two-electron integrals.
	Sorting File: SO Ints (pq,rs) nbuckets = 1
	Frozen-core energy =    0.000000000000000
	Starting first half-transformation.
	Sorting half-transformed integrals.
	Starting second half-transformation.
	Two-electron integral transformation complete.

*** tstop() called on lawn-143-215-103-161.lawn.gatech.edu at Fri Apr 27 14:04:50 2012
Module time:
	user time   =       0.01 seconds =       0.00 minutes
	system time =       0.01 seconds =       0.00 minutes
	total time  =          0 seconds =       0.00 minutes
Total time:
	user time   =       0.86 seconds =       0.01 minutes
	system time =       0.37 seconds =       0.01 minutes
	total time  =          1 seconds =       0.02 minutes

*** tstart() called on lawn-143-215-103-161.lawn.gatech.edu
*** at Fri Apr 27 14:04:50 2012


			**************************
			*                        *
			*         CCSORT         *
			*                        *
			**************************


	Input parameters:
	-----------------
	Wave function   =	MP2
	Reference wfn   =	RHF
	Derivative      =	First
	Memory (Mbytes) =	250.0
	AO Basis        =	NONE
	Make (ab|cd)    =	False
	Make unpacked (ab|cd) =	False
	Cache Level     =	2
	Cache Type      =	LRU
	Local CC        =     No


	Chkpt Parameters:
	--------------------
	Number of irreps     = 4
	Number of MOs        = 25
	Number of active MOs = 25

	Label	# MOs	# FZDC	# DOCC	# SOCC	# VIRT	# FZVR
	-----	-----	------	------	------	------	------
	 A1	   12	    0	    3	    0	    9	    0
	 A2	   2	    0	    0	    0	    2	    0
	 B1	   4	    0	    1	    0	    3	    0
	 B2	   7	    0	    1	    0	    6	    0

	Nuclear Rep. energy (chkpt) =      9.16263141923945
	SCF energy          (chkpt) =    -76.02289452343030

	Size of irrep 0 of <ab|cd> integrals:      0.017 (MW) /      0.135 (MB)
	Size of irrep 1 of <ab|cd> integrals:      0.005 (MW) /      0.041 (MB)
	Size of irrep 2 of <ab|cd> integrals:      0.006 (MW) /      0.049 (MB)
	Size of irrep 3 of <ab|cd> integrals:      0.014 (MW) /      0.115 (MB)
	Total:                                     0.043 (MW) /      0.341 (MB)

	Size of irrep 0 of <ia|bc> integrals:      0.005 (MW) /      0.037 (MB)
	Size of irrep 1 of <ia|bc> integrals:      0.001 (MW) /      0.009 (MB)
	Size of irrep 2 of <ia|bc> integrals:      0.002 (MW) /      0.012 (MB)
	Size of irrep 3 of <ia|bc> integrals:      0.003 (MW) /      0.028 (MB)
	Total:                                     0.011 (MW) /      0.086 (MB)

	Size of irrep 0 of tijab amplitudes:       0.001 (MW) /      0.011 (MB)
	Size of irrep 1 of tijab amplitudes:       0.000 (MW) /      0.001 (MB)
	Size of irrep 2 of tijab amplitudes:       0.000 (MW) /      0.004 (MB)
	Size of irrep 3 of tijab amplitudes:       0.001 (MW) /      0.006 (MB)
	Total:                                     0.003 (MW) /      0.022 (MB)


	Sorting File: A <ij|kl> nbuckets = 1
	Sorting File: C <ia|jb> nbuckets = 1
	Sorting File: D <ij|ab> nbuckets = 1
	Sorting File: E <ai|jk> nbuckets = 1
	Sorting File: F <ia|bc> nbuckets = 1
	Sorting File: F <ai|bc> nbuckets = 1
	One-electron energy          =   -123.03581341031065
	Two-electron (AA) energy     =     14.44581977994524
	Two-electron (BB) energy     =     14.44581977994524
	Two-electron (AB) energy     =     23.40446768769573
	Two-electron energy          =     37.85028746764097
	Frozen-core energy (transqt) =      0.00000000000000
	Reference energy             =    -76.02289452343024

*** tstop() called on lawn-143-215-103-161.lawn.gatech.edu at Fri Apr 27 14:04:50 2012
Module time:
	user time   =       0.02 seconds =       0.00 minutes
	system time =       0.04 seconds =       0.00 minutes
	total time  =          0 seconds =       0.00 minutes
Total time:
	user time   =       0.88 seconds =       0.01 minutes
	system time =       0.41 seconds =       0.01 minutes
	total time  =          1 seconds =       0.02 minutes

*** tstart() called on lawn-143-215-103-161.lawn.gatech.edu
*** at Fri Apr 27 14:04:50 2012

			*************************
			*                       *
			*          MP2          *
			*                       *
			*************************

	Nuclear rep. energy     =    9.162631419239446
	SCF energy              =  -76.022894523430296

	Input parameters:
	-----------------
	Wave function 	=	MP2
	Reference WFN 	=	RHF
	Derivative    	=	FIRST
	Cache Level   	=	2
	Cache Type    	=	LRU
	Memory (MB)   	=	250.0
	Print Level   	=	1
	OPDM          	=	NO
	SCS           	=	False
	MP2_OS_SCALE  	=	0.000000
	MP2_SS_SCALE  	=	0.000000

	Scaled_OS correlation energy      =   -0.160038823671319
	Scaled_SS correlation energy      =   -0.016728188141664
	SCS-MP2 correlation energy        =   -0.176767011812983
      * SCS-MP2 total energy              =  -76.199661535243280

	Opposite-spin correlation energy  =   -0.149369568759898
	Same-spin correlation energy      =   -0.050184564424992
	MP2 correlation energy            =   -0.199554133184890
      * MP2 total energy                  =  -76.222448656615185

	Trace of OPDM(2)        =    0.000000000000000

	Energies re-computed from Fock-adjusted CC density:
	---------------------------------------------------
	One-electron energy        =    0.230473810818283
	IJKL energy                =   -0.638726591424883
	IJKA energy                =   -0.051743571004825
	IJAB energy                =   -0.399108266369780
	IBJA energy                =    0.659550484790801
	MP2 correlation energy    =   -0.199554133190404
	Total MP2 energy          =  -76.222448656620699

	Energies re-computed from Mulliken density:
	-------------------------------------------
	One-electron energy        =    0.230473810818283
	IJKL energy                =   -0.638726591424883
	IJKA energy                =   -0.051743571004825
	IJAB energy                =   -0.428938208750159
	IBJA energy                =    0.689380427171180
	Total two-electron energy  =   -0.430027944008686
	MP2 correlation energy    =   -0.199554133190404
	Total MP2 energy          =  -76.222448656620699

*** tstop() called on lawn-143-215-103-161.lawn.gatech.edu at Fri Apr 27 14:04:51 2012
Module time:
	user time   =       0.02 seconds =       0.00 minutes
	system time =       0.03 seconds =       0.00 minutes
	total time  =          1 seconds =       0.02 minutes
Total time:
	user time   =       0.91 seconds =       0.02 minutes
	system time =       0.44 seconds =       0.01 minutes
	total time  =          2 seconds =       0.03 minutes

*** tstart() called on lawn-143-215-103-161.lawn.gatech.edu
*** at Fri Apr 27 14:04:51 2012

 DERIV: Derivative code.
   by Justin Turney

  Cartesian Displacement SALCs
  By SALC:
  Number of SALCs: 3, nirreps: 1
  Project out translations: False
  Project out rotations: False
	irrep = 0, ncomponent = 1
		0: atom 0, direction z, coef 1.000000
	irrep = 0, ncomponent = 2
		0: atom 1, direction y, coef 0.707107
		1: atom 2, direction y, coef -0.707107
	irrep = 0, ncomponent = 2
		0: atom 1, direction z, coef 0.707107
		1: atom 2, direction z, coef 0.707107

  By Atomic Center:
  Number of atomic centers: 3
   Atomic Center 0:
	x component, size = 0
	y component, size = 0
	z component, size = 1
		0: salc 0, irrep 0, coef 1.000000
   Atomic Center 1:
	x component, size = 0
	y component, size = 1
		0: salc 1, irrep 0, coef 0.707107
	z component, size = 1
		0: salc 2, irrep 0, coef 0.707107
   Atomic Center 2:
	x component, size = 0
	y component, size = 1
		0: salc 1, irrep 0, coef -0.707107
	z component, size = 1
		0: salc 2, irrep 0, coef 0.707107

    Molecular point group: c2v

    Geometry (in Bohr), charge = 0, multiplicity = 1:

       Center              X                  Y                   Z       
    ------------   -----------------  -----------------  -----------------
           O          0.000000000000     0.000000000000    -0.125262865220
           H          0.000000000000    -1.429470936868     0.994006286030
           H          0.000000000000     1.429470936868     0.994006286030

	Presorting MO-basis TPDM.
	Sorting File: MO TPDM (AA|AA) nbuckets = 1
	Starting first half-transformation.
	Sorting half-transformed TPDM.
	First half integral transformation complete.


  -Nuclear Repulsion Energy 1st Derivatives:
     Atom            X                  Y                   Z
    ------   -----------------  -----------------  -----------------
       1        0.000000000000     0.000000000000     2.992567457556
       2        0.000000000000     2.033319751747    -1.496283728778
       3        0.000000000000    -2.033319751747    -1.496283728778


  -One-electron contribution to gradient:
     Atom            X                  Y                   Z
    ------   -----------------  -----------------  -----------------
       1        0.000000000000     0.000000000000    -6.883616094234
       2        0.000000000000    -4.603943019590     3.441808047117
       3        0.000000000000     4.603943019590     3.441808047117


  -Lagrangian contribution to gradient:
     Atom            X                  Y                   Z
    ------   -----------------  -----------------  -----------------
       1        0.000000000000     0.000000000000     0.416594186623
       2        0.000000000000     0.254081389326    -0.208297093311
       3        0.000000000000    -0.254081389326    -0.208297093311


  -Two-electron contribution to gradient:
     Atom            X                  Y                   Z
    ------   -----------------  -----------------  -----------------
       1        0.000000000000     0.000000000000     3.474509560911
       2        0.000000000000     2.316570480058    -1.737254780456
       3        0.000000000000    -2.316570480058    -1.737254780456


  -Total gradient:
     Atom            X                  Y                   Z
    ------   -----------------  -----------------  -----------------
       1        0.000000000000     0.000000000000     0.000055110856
       2        0.000000000000     0.000028601541    -0.000027555428
       3        0.000000000000    -0.000028601541    -0.000027555428


*** tstop() called on lawn-143-215-103-161.lawn.gatech.edu at Fri Apr 27 14:04:51 2012
Module time:
	user time   =       0.14 seconds =       0.00 minutes
	system time =       0.02 seconds =       0.00 minutes
	total time  =          0 seconds =       0.00 minutes
Total time:
	user time   =       1.05 seconds =       0.02 minutes
	system time =       0.46 seconds =       0.01 minutes
	total time  =          2 seconds =       0.03 minutes

			----------------------------------
			 OPTKING: for geometry optimizations  
			  - R.A. King,  Bethel University   
			------------------------------------

	Previous internal coordinate definitions found.
	---Fragment 1 Geometry and Gradient---
	 O           0.0000000000        0.0000000000       -0.1252628652
	 H           0.0000000000       -1.4294709369        0.9940062860
	 H           0.0000000000        1.4294709369        0.9940062860
	             0.0000000000        0.0000000000        0.0000551109
	             0.0000000000        0.0000286015       -0.0000275554
	             0.0000000000       -0.0000286015       -0.0000275554

	---Fragment 1 Intrafragment Coordinates---
	 - Coordinate -           - BOHR/RAD -       - ANG/DEG -
	 R(1,2)           =         1.815530	       0.960737
	 R(1,3)           =         1.815530	       0.960737
	 B(2,1,3)         =         1.813021	     103.878440

	Current energy   :       -76.2224486566

	Energy change for the previous step:
		Projected    :        -0.0000004343
		Actual       :        -0.0000003957

	Performing BFGS update with previous 1 gradient(s).
	Going to follow RFO solution 1.
	Projected energy change by RFO approximation:        -0.0000000033

	Back-transformation to cartesian coordinates...
	Successfully converged to displaced geometry.

	---Internal Coordinate Step in ANG or DEG, aJ/ANG or AJ/DEG ---
	 ----------------------------------------------------------------------
	 Coordinate             Previous        Force       Change         New 
	 ----------             --------       ------       ------       ------
	 R(1,2)          =      0.960737     0.000325     0.000040     0.960778
	 R(1,3)          =      0.960737     0.000325     0.000040     0.960778
	 B(2,1,3)        =    103.878440    -0.000001    -0.004267   103.874172
	 ----------------------------------------------------------------------

  ==> Convergence Check <==

  Measures of convergence in internal coordinates in au.
  Criteria marked as inactive (o), active & met (*), and active & unmet ( ).
  ---------------------------------------------------------------------------------------------
   Step     Total Energy     Delta E     MAX Force     RMS Force      MAX Disp      RMS Disp   
  ---------------------------------------------------------------------------------------------
    Convergence Criteria    1.00e-06 *    3.00e-04 *             o    1.20e-03 *             o
  ---------------------------------------------------------------------------------------------
      4     -76.22244866   -3.96e-07 *    3.95e-05 *    3.25e-05 o    7.60e-05 *    7.55e-05 o  ~
  ---------------------------------------------------------------------------------------------


  **** Optimization is complete! ****

  ==> Optimization Summary <==

  Measures of convergence in internal coordinates in au.
  --------------------------------------------------------------------------------------------------------------- ~
   Step         Total Energy             Delta E       MAX Force       RMS Force        MAX Disp        RMS Disp  ~
  --------------------------------------------------------------------------------------------------------------- ~
      1     -76.219381813491    -76.219381813491      0.03686856      0.03075180      0.07629747      0.07285436  ~
      2     -76.222373193858     -0.002991380367      0.00501175      0.00340489      0.02713437      0.01585200  ~
      3     -76.222448260874     -0.000075067016      0.00039474      0.00033342      0.00126421      0.00101477  ~
      4     -76.222448656615     -0.000000395741      0.00003951      0.00003254      0.00007598      0.00007548  ~
  --------------------------------------------------------------------------------------------------------------- ~

	Writing optimization data to binary file.
	Final energy is    -76.2224486566152
	Final (previous) structure:
	Cartesian Geometry (au)
	    O     0.0000000000   0.0000000000  -0.1252628652
	    H     0.0000000000  -1.4294709369   0.9940062860
	    H     0.0000000000   1.4294709369   0.9940062860
	Saving final (previous) structure.
			--------------------------
			 OPTKING Finished Execution 
			--------------------------

	Final optimized geometry and variables (in Angstrom):

	O
	H     1    0.960737
	H     1    0.960737     2  103.878440


*** PSI4 exiting successfully. Buy a developer a beer!
