    -----------------------------------------------------------------------
          PSI4: An Open-Source Ab Initio Electronic Structure Package
                              PSI 4.0.0-beta1 Driver

               Git: Rev 8268e5ba0276eef671d5bc4a44cf66fa46407463

    J. M. Turney, A. C. Simmonett, R. M. Parrish, E. G. Hohenstein,
    F. A. Evangelista, J. T. Fermann, B. J. Mintz, L. A. Burns, J. J. Wilke,
    M. L. Abrams, N. J. Russ, M. L. Leininger, C. L. Janssen, E. T. Seidl,
    W. D. Allen, H. F. Schaefer, R. A. King, E. F. Valeev, C. D. Sherrill,
    and T. D. Crawford, WIREs Comput. Mol. Sci., (2011) (doi: 10.1002/wcms.93)

                         Additional Contributions by
    A. E. DePrince, M. Saitow, U. Bozkaya, A. Yu. Sokolov
    -----------------------------------------------------------------------


    Using LocalCommunicator (Number of processes = 1)

    Memory level set to 256.000 MB

  ==> Input File <==

--------------------------------------------------------------------------
#! Intercalls among python wrappers- database, cbs, optimize, energy, etc.
#! Though each call below functions individually, running them all in sequence or
#! mixing up the sequence is aspirational at present.
#! Also aspirational is using the intended types of gradients.

memory 250 mb

ref_DB_E = 0.016075135344  #TEST
ref_DB_CBS_E = 0.034877478903  #TEST
ref_CBS_E = -1.148830624581  #TEST
ref_CBS_E_postopt = -1.17444630 #TEST
ref_OPT_E_0 = -1.140254531567  #TEST
ref_OPT_E_1 = -1.122959828171  #TEST
ref_DB_OPT_E_BASIC = 37075.200420269888  #TEST
ref_DB_OPT_E_S22 = 4.636003565957  #TEST
ref_OPT_CBS_E_0 = -1.174446301062  #TEST
ref_CDS_CBS_E_0 = -1.17526597  #TEST

molecule h2 {
    H
    H 1 1.00
}

set globals {
    BASIS 3-21G
    REFERENCE RHF
    SCF_TYPE PK
    PRINT 1
    R_CONVERGENCE 11
    JOBTYPE SP
    GUESS CORE
}

banner('Test [1] optimize(cbs(energy()))')
optimize('mp2',func=cbs,corl_basis='cc-pv[dt]z',corl_scheme=corl_xtpl_helgaker_2,delta_wfn='ccsd',delta_basis='3-21g')
compare_values(ref_OPT_CBS_E_0, get_variable('CBS TOTAL ENERGY'), 7, "[1] Wrapper optimize(cbs(), dertype=0)")  #TEST

banner('Test [2] database(energy())')
db('mp2','RGC10',cast_up='sto-3g',subset=['HeHe-0.85','HeHe-1.0'],tabulate=['mp2 total energy'])
compare_values(ref_DB_E, get_variable('RGC10 DATABASE ROOT-MEAN-SQUARE DEVIATION'), 5, "[2] Wrapper database() incl. castup")  #TEST

banner('Test [3] database(cbs(energy()))')
db('mp2','RGC10',func=cbs,subset=['HeHe-0.85','HeHe-1.0'],tabulate=['mp2 total energy','current energy'],corl_basis='cc-pV[DT]Z',corl_scheme=corl_xtpl_helgaker_2,delta_wfn='ccsd(t)',delta_basis='3-21g')
compare_values(ref_DB_CBS_E, get_variable('RGC10 DATABASE ROOT-MEAN-SQUARE DEVIATION'), 5, "[3] Wrapper database(cbs())")  #TEST

banner('Test [4] cbs(energy())')
# use first compare_values for h2 geom above, second for h2 geom after optimization in [1]
cbs('mp2',corl_basis='cc-pv[dt]z',corl_scheme=corl_xtpl_helgaker_2,delta_wfn='ccsd',delta_basis='3-21g',delta2_wfn='ccsd(t)',delta2_wfn_lesser='ccsd',delta2_basis='3-21g')
#compare_values(ref_CBS_E, get_variable('CBS TOTAL ENERGY'), 7, "[4] Wrapper complete_basis_set calling energy")  #TEST
compare_values(ref_CBS_E_postopt, get_variable('CBS TOTAL ENERGY'), 7, "[4] Wrapper cbs()")  #TEST

banner('Test [5] opt(energy())')
# TODO switch to mp2 once gradients thoroughly working again
optimize('mp2',dertype='none')
compare_values(ref_OPT_E_0, get_variable('CURRENT ENERGY'), 7, "[5] Wrapper optimize(dertype=0)")  #TEST
banner('Test [6] opt(energy())')
optimize('scf')
compare_values(ref_OPT_E_1, get_variable('CURRENT ENERGY'), 7, "[6] Wrapper optimize()")  #TEST
banner('Test [7] opt(energy())')
h2.reset_point_group('c1')
h2.fix_orientation(1)
h2.update_geometry()
optimize('mp2')
compare_values(ref_OPT_E_0, get_variable('CURRENT ENERGY'), 7, "[7] Wrapper optimize()")  #TEST

banner('Test [8] database(opt(energy()))')
db('mp2','S22',db_func=optimize,subset=[1],tabulate=['mp2 total energy','current energy'])
compare_values(ref_DB_OPT_E_S22, get_variable('S22 DATABASE ROOT-MEAN-SQUARE DEVIATION'), 3, "[8] Wrapper database(optimize())")  #TEST

banner('Test [9] alias(cbs(energy()))')
sherrillgroup_gold_standard()
compare_values(ref_CDS_CBS_E_0, get_variable("CBS TOTAL ENERGY"), 6, '[9] Aliased wrapper calling cbs()')  #TEST
--------------------------------------------------------------------------

  Memory set to 250.000 MiB by Python script.
  //>>>>>>>>>>>>>>>>>>>>>>>>>>>>>>>>>>>//
  //  Test [1] optimize(cbs(energy())) //
  //<<<<<<<<<<<<<<<<<<<<<<<<<<<<<<<<<<<//

-------------------------------------------------------------

  Using finite-differences of energies to determine gradients (fd_geoms_1_0).
	Generating geometries for use with 3-point formula.
	Displacement size will be 5.00e-03.
	Number of atoms is 2.
	Number of symmetric SALC's is 1.
	Number of displacements (including reference) is 3.

-------------------------------------------------------------

  //>>>>>>>>>>>>>>>>>>>>>>>>>>>>>>>>>>>//
  //    Loading displacement 1 of 3    //
  //<<<<<<<<<<<<<<<<<<<<<<<<<<<<<<<<<<<//

  //>>>>>>>>>>>>>>>>>>>>>>>>>>>>>>>>>>>//
  //             CBS Setup             //
  //<<<<<<<<<<<<<<<<<<<<<<<<<<<<<<<<<<<//

    Naive listing of computations required.
            scf / cc-pvtz                  for  SCF TOTAL ENERGY
            mp2 / cc-pvdz                  for  MP2 CORRELATION ENERGY
            mp2 / cc-pvtz                  for  MP2 CORRELATION ENERGY
           ccsd / 3-21g                    for  CCSD CORRELATION ENERGY
            mp2 / 3-21g                    for  MP2 CORRELATION ENERGY

    Enlightened listing of computations required.
            mp2 / cc-pvdz                  for  MP2 CORRELATION ENERGY
            mp2 / cc-pvtz                  for  MP2 CORRELATION ENERGY
           ccsd / 3-21g                    for  CCSD CORRELATION ENERGY

  //>>>>>>>>>>>>>>>>>>>>>>>>>>>>>>>>>>>//
  //   CBS Computation: MP2 / CC-PVDZ  //
  //<<<<<<<<<<<<<<<<<<<<<<<<<<<<<<<<<<<//


*** tstart() called on lawn-143-215-103-161.lawn.gatech.edu
*** at Fri Apr 27 14:40:16 2012

	There are an even number of electrons - assuming singlet.
	Specify the multiplicity with the MULTP option in the
	input if this is incorrect


         ---------------------------------------------------------
                                   SCF
            by Justin Turney, Rob Parrish, and Andy Simmonett
                              RHF Reference
                        1 Threads,    250 MiB Core
         ---------------------------------------------------------

  ==> Geometry <==

    Molecular point group: d2h

    Geometry (in Angstrom), charge = 0, multiplicity = 1:

       Center              X                  Y                   Z       
    ------------   -----------------  -----------------  -----------------
           H          0.000000000000     0.000000000000    -0.501863646625
           H          0.000000000000     0.000000000000     0.501863646625

  Running in d2h symmetry.

  Nuclear repulsion =    0.527212134360779

  Charge       = 0
  Multiplicity = 1
  Electrons    = 2
  Nalpha       = 1
  Nbeta        = 1

  ==> Algorithm <==

  SCF Algorithm Type is PK.
  DIIS enabled.
  MOM disabled.
  Fractional occupation disabled.
  Guess Type is CORE.
  Energy threshold   = 1.00e-08
  Density threshold  = 1.00e-08
  Integral threshold = 0.00e+00

  ==> Primary Basis <==

  Basis Set: cc-pvdz
    Number of shells: 6
    Number of basis function: 10
    Number of Cartesian functions: 10
    Spherical Harmonics?: true
    Max angular momentum: 1

  ==> Pre-Iterations <==

  Minimum eigenvalue in the overlap matrix is 1.1287443567E-01.
  Using Symmetric Orthogonalization.
  SCF Guess: Core (One-Electron) Hamiltonian.

  Initial RHF energy:    -0.59984732841818

   -------------------------------------------------------
    Irrep   Nso     Nmo     Nalpha   Nbeta   Ndocc  Nsocc
   -------------------------------------------------------
     Ag         3       3       1       1       1       0
     B1g        0       0       0       0       0       0
     B2g        1       1       0       0       0       0
     B3g        1       1       0       0       0       0
     Au         0       0       0       0       0       0
     B1u        3       3       0       0       0       0
     B2u        1       1       0       0       0       0
     B3u        1       1       0       0       0       0
   -------------------------------------------------------
    Total      10      10       1       1       1       0
   -------------------------------------------------------

  ==> Integral Setup <==

 MINTS: Wrapper to libmints.
   by Justin Turney

   Calculation information:
      Number of atoms:                   2
      Number of AO shells:               6
      Number of SO shells:               3
      Number of primitives:             10
      Number of atomic orbitals:        10
      Number of basis functions:        10

      Number of irreps:                  8
      Number of functions per irrep: [   3    0    1    1    0    3    1    1 ]

      Overlap, kinetic, potential, dipole, and quadrupole integrals
        stored in file 35.

      Computing two-electron integrals...done
      Computed 292 non-zero two-electron integrals.
        Stored in file 33.

  ==> Iterations <==

                        Total Energy        Delta E     Density RMS

   @RHF iter   1:    -1.04975788986317   -4.49911e-01   0.00000e+00 
   @RHF iter   2:    -1.09789943915575   -4.81415e-02   4.03122e-02 DIIS
   @RHF iter   3:    -1.09948035786054   -1.58092e-03   8.47713e-03 DIIS
   @RHF iter   4:    -1.09948222114070   -1.86328e-06   2.26263e-04 DIIS
   @RHF iter   5:    -1.09948223048244   -9.34174e-09   2.18329e-05 DIIS

  ==> Post-Iterations <==

	Orbital Energies (a.u.)
	-----------------------

	Doubly Occupied:                                                      

	   1Ag    -0.524220  

	Virtual:                                                              

	   1B1u    0.142778     2Ag     0.540436     2B1u    0.793283  
	   1B2u    1.287412     1B3u    1.287412     3Ag     1.675049  
	   1B2g    1.869211     1B3g    1.869211     3B1u    2.728949  

	Final Occupation by Irrep:
	         Ag   B1g   B2g   B3g    Au   B1u   B2u   B3u 
	DOCC [     1,    0,    0,    0,    0,    0,    0,    0 ]

  Energy converged.

  @RHF Final Energy:    -1.09948223048244

   => Energetics <=

    Nuclear Repulsion Energy =          0.5272121343607794
    One-Electron Energy =              -2.2049499863186393
    Two-Electron Energy =               0.5782556214754165
    DFT Functional Energy =             0.0000000000000000
    Empirical Dispersion Energy =       0.0000000000000000
    Total Energy =                     -1.0994822304824434

  ==> Properties <==

  Nuclear Dipole Moment: (a.u.)
     X:     0.0000      Y:     0.0000      Z:     0.0000

  Electronic Dipole Moment: (a.u.)
     X:     0.0000      Y:     0.0000      Z:     0.0000

  Dipole Moment: (a.u.)
     X:     0.0000      Y:     0.0000      Z:     0.0000     Total:     0.0000

  Dipole Moment: (Debye)
     X:     0.0000      Y:     0.0000      Z:     0.0000     Total:     0.0000


  Saving occupied orbitals to File 180.

*** tstop() called on lawn-143-215-103-161.lawn.gatech.edu at Fri Apr 27 14:40:16 2012
Module time:
	user time   =       0.04 seconds =       0.00 minutes
	system time =       0.00 seconds =       0.00 minutes
	total time  =          0 seconds =       0.00 minutes
Total time:
	user time   =       0.04 seconds =       0.00 minutes
	system time =       0.00 seconds =       0.00 minutes
	total time  =          0 seconds =       0.00 minutes

*** tstart() called on lawn-143-215-103-161.lawn.gatech.edu
*** at Fri Apr 27 14:40:16 2012


	**************************************************
	* TRANSQT2: Program to transform integrals from  *
	*           the SO basis to the MO basis.        *
	*                                                *
	*            Daniel, David, & Justin             *
	**************************************************


	Input parameters:
	-----------------
	Wave function   =	MP2
	Backtransform   =	No
	Print Level     =	1
	Print TEIs      =	No
	Reference wfn   =	RHF
	Derivative      =	None
	Delete TEI File =	Yes
	Memory (Mbytes) =	250.0
	Cache Level     =	2
	Cache Type      =	LRU
	Chkpt Parameters:
	--------------------
	Number of irreps     = 8
	Number of SOs        = 10
	Number of MOs        = 10
	Number of active MOs = 10

	Label	# SOs	# FZDC	# DOCC	# SOCC	# VIRT	# FZVR
	-----	-----	------	------	------	------	------
	 Ag	   3	    0	    1	    0	    2	    0
	 B1g	   0	    0	    0	    0	    0	    0
	 B2g	   1	    0	    0	    0	    1	    0
	 B3g	   1	    0	    0	    0	    1	    0
	 Au	   0	    0	    0	    0	    0	    0
	 B1u	   3	    0	    0	    0	    3	    0
	 B2u	   1	    0	    0	    0	    1	    0
	 B3u	   1	    0	    0	    0	    1	    0

	Nuclear Rep. energy (chkpt) =      0.52721213436078
	SCF energy          (chkpt) =     -1.09948223048244

	Presorting SO-basis two-electron integrals.
	Sorting File: SO Ints (pq,rs) nbuckets = 1
	Frozen-core energy =    0.000000000000000
	Starting first half-transformation.
	Sorting half-transformed integrals.
	Starting second half-transformation.
	Two-electron integral transformation complete.

*** tstop() called on lawn-143-215-103-161.lawn.gatech.edu at Fri Apr 27 14:40:16 2012
Module time:
	user time   =       0.00 seconds =       0.00 minutes
	system time =       0.01 seconds =       0.00 minutes
	total time  =          0 seconds =       0.00 minutes
Total time:
	user time   =       0.04 seconds =       0.00 minutes
	system time =       0.01 seconds =       0.00 minutes
	total time  =          0 seconds =       0.00 minutes

*** tstart() called on lawn-143-215-103-161.lawn.gatech.edu
*** at Fri Apr 27 14:40:16 2012


			**************************
			*                        *
			*         CCSORT         *
			*                        *
			**************************


	Input parameters:
	-----------------
	Wave function   =	MP2
	Reference wfn   =	RHF
	Derivative      =	None
	Memory (Mbytes) =	250.0
	AO Basis        =	NONE
	Make (ab|cd)    =	False
	Make unpacked (ab|cd) =	False
	Cache Level     =	2
	Cache Type      =	LRU
	Local CC        =     No


	Chkpt Parameters:
	--------------------
	Number of irreps     = 8
	Number of MOs        = 10
	Number of active MOs = 10

	Label	# MOs	# FZDC	# DOCC	# SOCC	# VIRT	# FZVR
	-----	-----	------	------	------	------	------
	 Ag	   3	    0	    1	    0	    2	    0
	 B1g	   0	    0	    0	    0	    0	    0
	 B2g	   1	    0	    0	    0	    1	    0
	 B3g	   1	    0	    0	    0	    1	    0
	 Au	   0	    0	    0	    0	    0	    0
	 B1u	   3	    0	    0	    0	    3	    0
	 B2u	   1	    0	    0	    0	    1	    0
	 B3u	   1	    0	    0	    0	    1	    0

	Nuclear Rep. energy (chkpt) =      0.52721213436078
	SCF energy          (chkpt) =     -1.09948223048244

	Size of irrep 0 of <ab|cd> integrals:      0.000 (MW) /      0.002 (MB)
	Size of irrep 1 of <ab|cd> integrals:      0.000 (MW) /      0.000 (MB)
	Size of irrep 2 of <ab|cd> integrals:      0.000 (MW) /      0.001 (MB)
	Size of irrep 3 of <ab|cd> integrals:      0.000 (MW) /      0.001 (MB)
	Size of irrep 4 of <ab|cd> integrals:      0.000 (MW) /      0.000 (MB)
	Size of irrep 5 of <ab|cd> integrals:      0.000 (MW) /      0.002 (MB)
	Size of irrep 6 of <ab|cd> integrals:      0.000 (MW) /      0.001 (MB)
	Size of irrep 7 of <ab|cd> integrals:      0.000 (MW) /      0.001 (MB)
	Total:                                     0.001 (MW) /      0.008 (MB)

	Size of irrep 0 of <ia|bc> integrals:      0.000 (MW) /      0.000 (MB)
	Size of irrep 1 of <ia|bc> integrals:      0.000 (MW) /      0.000 (MB)
	Size of irrep 2 of <ia|bc> integrals:      0.000 (MW) /      0.000 (MB)
	Size of irrep 3 of <ia|bc> integrals:      0.000 (MW) /      0.000 (MB)
	Size of irrep 4 of <ia|bc> integrals:      0.000 (MW) /      0.000 (MB)
	Size of irrep 5 of <ia|bc> integrals:      0.000 (MW) /      0.000 (MB)
	Size of irrep 6 of <ia|bc> integrals:      0.000 (MW) /      0.000 (MB)
	Size of irrep 7 of <ia|bc> integrals:      0.000 (MW) /      0.000 (MB)
	Total:                                     0.000 (MW) /      0.001 (MB)

	Size of irrep 0 of tijab amplitudes:       0.000 (MW) /      0.000 (MB)
	Size of irrep 1 of tijab amplitudes:       0.000 (MW) /      0.000 (MB)
	Size of irrep 2 of tijab amplitudes:       0.000 (MW) /      0.000 (MB)
	Size of irrep 3 of tijab amplitudes:       0.000 (MW) /      0.000 (MB)
	Size of irrep 4 of tijab amplitudes:       0.000 (MW) /      0.000 (MB)
	Size of irrep 5 of tijab amplitudes:       0.000 (MW) /      0.000 (MB)
	Size of irrep 6 of tijab amplitudes:       0.000 (MW) /      0.000 (MB)
	Size of irrep 7 of tijab amplitudes:       0.000 (MW) /      0.000 (MB)
	Total:                                     0.000 (MW) /      0.000 (MB)


	Sorting File: A <ij|kl> nbuckets = 1
	Sorting File: C <ia|jb> nbuckets = 1
	Sorting File: D <ij|ab> nbuckets = 1
	Sorting File: E <ai|jk> nbuckets = 1
	Sorting File: F <ia|bc> nbuckets = 1
	One-electron energy          =     -2.20494997178072
	Two-electron (AA) energy     =      0.00000000000000
	Two-electron (BB) energy     =      0.00000000000000
	Two-electron (AB) energy     =      0.57825560693751
	Two-electron energy          =      0.57825560693751
	Frozen-core energy (transqt) =      0.00000000000000
	Reference energy             =     -1.09948223048243

*** tstop() called on lawn-143-215-103-161.lawn.gatech.edu at Fri Apr 27 14:40:17 2012
Module time:
	user time   =       0.02 seconds =       0.00 minutes
	system time =       0.02 seconds =       0.00 minutes
	total time  =          1 seconds =       0.02 minutes
Total time:
	user time   =       0.06 seconds =       0.00 minutes
	system time =       0.03 seconds =       0.00 minutes
	total time  =          1 seconds =       0.02 minutes

*** tstart() called on lawn-143-215-103-161.lawn.gatech.edu
*** at Fri Apr 27 14:40:17 2012

			*************************
			*                       *
			*          MP2          *
			*                       *
			*************************

	Nuclear rep. energy     =    0.527212134360779
	SCF energy              =   -1.099482230482443

	Input parameters:
	-----------------
	Wave function 	=	MP2
	Reference WFN 	=	RHF
	Derivative    	=	NONE
	Cache Level   	=	2
	Cache Type    	=	LRU
	Memory (MB)   	=	250.0
	Print Level   	=	1
	OPDM          	=	NO
	SCS           	=	False
	MP2_OS_SCALE  	=	0.000000
	MP2_SS_SCALE  	=	0.000000

	Scaled_OS correlation energy      =   -0.030794524581712
	Scaled_SS correlation energy      =    0.000000000000000
	SCS-MP2 correlation energy        =   -0.030794524581712
      * SCS-MP2 total energy              =   -1.130276755064155

	Opposite-spin correlation energy  =   -0.028741556276265
	Same-spin correlation energy      =    0.000000000000000
	MP2 correlation energy            =   -0.028741556276265
      * MP2 total energy                  =   -1.128223786758708


*** tstop() called on lawn-143-215-103-161.lawn.gatech.edu at Fri Apr 27 14:40:17 2012
Module time:
	user time   =       0.01 seconds =       0.00 minutes
	system time =       0.02 seconds =       0.00 minutes
	total time  =          0 seconds =       0.00 minutes
Total time:
	user time   =       0.07 seconds =       0.00 minutes
	system time =       0.06 seconds =       0.00 minutes
	total time  =          1 seconds =       0.02 minutes

  //>>>>>>>>>>>>>>>>>>>>>>>>>>>>>>>>>>>//
  //   CBS Computation: MP2 / CC-PVTZ  //
  //<<<<<<<<<<<<<<<<<<<<<<<<<<<<<<<<<<<//


*** tstart() called on lawn-143-215-103-161.lawn.gatech.edu
*** at Fri Apr 27 14:40:17 2012

	There are an even number of electrons - assuming singlet.
	Specify the multiplicity with the MULTP option in the
	input if this is incorrect


         ---------------------------------------------------------
                                   SCF
            by Justin Turney, Rob Parrish, and Andy Simmonett
                              RHF Reference
                        1 Threads,    250 MiB Core
         ---------------------------------------------------------

  ==> Geometry <==

    Molecular point group: d2h

    Geometry (in Angstrom), charge = 0, multiplicity = 1:

       Center              X                  Y                   Z       
    ------------   -----------------  -----------------  -----------------
           H          0.000000000000     0.000000000000    -0.501863646625
           H          0.000000000000     0.000000000000     0.501863646625

  Running in d2h symmetry.

  Nuclear repulsion =    0.527212134360779

  Charge       = 0
  Multiplicity = 1
  Electrons    = 2
  Nalpha       = 1
  Nbeta        = 1

  ==> Algorithm <==

  SCF Algorithm Type is PK.
  DIIS enabled.
  MOM disabled.
  Fractional occupation disabled.
  Guess Type is CORE.
  Energy threshold   = 1.00e-08
  Density threshold  = 1.00e-08
  Integral threshold = 0.00e+00

  ==> Primary Basis <==

  Basis Set: cc-pvtz
    Number of shells: 12
    Number of basis function: 28
    Number of Cartesian functions: 30
    Spherical Harmonics?: true
    Max angular momentum: 2

  ==> Pre-Iterations <==

  Minimum eigenvalue in the overlap matrix is 7.0871782142E-03.
  Using Symmetric Orthogonalization.
  SCF Guess: Core (One-Electron) Hamiltonian.

  Initial RHF energy:    -0.60166732021482

   -------------------------------------------------------
    Irrep   Nso     Nmo     Nalpha   Nbeta   Ndocc  Nsocc
   -------------------------------------------------------
     Ag         7       7       1       1       1       0
     B1g        1       1       0       0       0       0
     B2g        3       3       0       0       0       0
     B3g        3       3       0       0       0       0
     Au         1       1       0       0       0       0
     B1u        7       7       0       0       0       0
     B2u        3       3       0       0       0       0
     B3u        3       3       0       0       0       0
   -------------------------------------------------------
    Total      28      28       1       1       1       0
   -------------------------------------------------------

  ==> Integral Setup <==

 MINTS: Wrapper to libmints.
   by Justin Turney

   Calculation information:
      Number of atoms:                   2
      Number of AO shells:              12
      Number of SO shells:               6
      Number of primitives:             16
      Number of atomic orbitals:        30
      Number of basis functions:        28

      Number of irreps:                  8
      Number of functions per irrep: [   7    1    3    3    1    7    3    3 ]

      Overlap, kinetic, potential, dipole, and quadrupole integrals
        stored in file 35.

      Computing two-electron integrals...done
      Computed 10381 non-zero two-electron integrals.
        Stored in file 33.

  ==> Iterations <==

                        Total Energy        Delta E     Density RMS

   @RHF iter   1:    -1.05217335216047   -4.50506e-01   0.00000e+00 
   @RHF iter   2:    -1.09950026689286   -4.73269e-02   1.11882e-02 DIIS
   @RHF iter   3:    -1.10136297166245   -1.86270e-03   3.10665e-03 DIIS
   @RHF iter   4:    -1.10138146150559   -1.84898e-05   4.41185e-04 DIIS
   @RHF iter   5:    -1.10138150882508   -4.73195e-08   2.27362e-05 DIIS
   @RHF iter   6:    -1.10138150919370   -3.68619e-10   1.02521e-06 DIIS
   @RHF iter   7:    -1.10138150919389   -1.90958e-13   2.47562e-08 DIIS

  ==> Post-Iterations <==

	Orbital Energies (a.u.)
	-----------------------

	Doubly Occupied:                                                      

	   1Ag    -0.525466  

	Virtual:                                                              

	   1B1u    0.123843     2Ag     0.328599     2B1u    0.545271  
	   1B2u    0.671424     1B3u    0.671424     3Ag     1.006192  
	   1B3g    1.061969     1B2g    1.061969     3B1u    1.474522  
	   4Ag     2.522334     4B1u    2.600199     1B1g    3.207911  
	   5Ag     3.207911     2B2u    3.223511     2B3u    3.223511  
	   6Ag     3.453184     1Au     3.819316     5B1u    3.819316  
	   3B2u    3.941325     3B3u    3.941325     2B3g    4.003188  
	   2B2g    4.003188     6B1u    4.090318     3B3g    4.900375  
	   3B2g    4.900375     7Ag     4.968230     7B1u    6.218251  

	Final Occupation by Irrep:
	         Ag   B1g   B2g   B3g    Au   B1u   B2u   B3u 
	DOCC [     1,    0,    0,    0,    0,    0,    0,    0 ]

  Energy converged.

  @RHF Final Energy:    -1.10138150919389

   => Energetics <=

    Nuclear Repulsion Energy =          0.5272121343607794
    One-Electron Energy =              -2.2062555306574909
    Two-Electron Energy =               0.5776618871028191
    DFT Functional Energy =             0.0000000000000000
    Empirical Dispersion Energy =       0.0000000000000000
    Total Energy =                     -1.1013815091938923

  ==> Properties <==

  Nuclear Dipole Moment: (a.u.)
     X:     0.0000      Y:     0.0000      Z:     0.0000

  Electronic Dipole Moment: (a.u.)
     X:     0.0000      Y:     0.0000      Z:     0.0000

  Dipole Moment: (a.u.)
     X:     0.0000      Y:     0.0000      Z:     0.0000     Total:     0.0000

  Dipole Moment: (Debye)
     X:     0.0000      Y:     0.0000      Z:     0.0000     Total:     0.0000


  Saving occupied orbitals to File 180.

*** tstop() called on lawn-143-215-103-161.lawn.gatech.edu at Fri Apr 27 14:40:17 2012
Module time:
	user time   =       0.07 seconds =       0.00 minutes
	system time =       0.01 seconds =       0.00 minutes
	total time  =          0 seconds =       0.00 minutes
Total time:
	user time   =       0.14 seconds =       0.00 minutes
	system time =       0.07 seconds =       0.00 minutes
	total time  =          1 seconds =       0.02 minutes

*** tstart() called on lawn-143-215-103-161.lawn.gatech.edu
*** at Fri Apr 27 14:40:17 2012


	**************************************************
	* TRANSQT2: Program to transform integrals from  *
	*           the SO basis to the MO basis.        *
	*                                                *
	*            Daniel, David, & Justin             *
	**************************************************


	Input parameters:
	-----------------
	Wave function   =	MP2
	Backtransform   =	No
	Print Level     =	1
	Print TEIs      =	No
	Reference wfn   =	RHF
	Derivative      =	None
	Delete TEI File =	Yes
	Memory (Mbytes) =	250.0
	Cache Level     =	2
	Cache Type      =	LRU
	Chkpt Parameters:
	--------------------
	Number of irreps     = 8
	Number of SOs        = 28
	Number of MOs        = 28
	Number of active MOs = 28

	Label	# SOs	# FZDC	# DOCC	# SOCC	# VIRT	# FZVR
	-----	-----	------	------	------	------	------
	 Ag	   7	    0	    1	    0	    6	    0
	 B1g	   1	    0	    0	    0	    1	    0
	 B2g	   3	    0	    0	    0	    3	    0
	 B3g	   3	    0	    0	    0	    3	    0
	 Au	   1	    0	    0	    0	    1	    0
	 B1u	   7	    0	    0	    0	    7	    0
	 B2u	   3	    0	    0	    0	    3	    0
	 B3u	   3	    0	    0	    0	    3	    0

	Nuclear Rep. energy (chkpt) =      0.52721213436078
	SCF energy          (chkpt) =     -1.10138150919389

	Presorting SO-basis two-electron integrals.
	Sorting File: SO Ints (pq,rs) nbuckets = 1
	Frozen-core energy =    0.000000000000000
	Starting first half-transformation.
	Sorting half-transformed integrals.
	Starting second half-transformation.
	Two-electron integral transformation complete.

*** tstop() called on lawn-143-215-103-161.lawn.gatech.edu at Fri Apr 27 14:40:17 2012
Module time:
	user time   =       0.01 seconds =       0.00 minutes
	system time =       0.01 seconds =       0.00 minutes
	total time  =          0 seconds =       0.00 minutes
Total time:
	user time   =       0.15 seconds =       0.00 minutes
	system time =       0.08 seconds =       0.00 minutes
	total time  =          1 seconds =       0.02 minutes

*** tstart() called on lawn-143-215-103-161.lawn.gatech.edu
*** at Fri Apr 27 14:40:17 2012


			**************************
			*                        *
			*         CCSORT         *
			*                        *
			**************************


	Input parameters:
	-----------------
	Wave function   =	MP2
	Reference wfn   =	RHF
	Derivative      =	None
	Memory (Mbytes) =	250.0
	AO Basis        =	NONE
	Make (ab|cd)    =	False
	Make unpacked (ab|cd) =	False
	Cache Level     =	2
	Cache Type      =	LRU
	Local CC        =     No


	Chkpt Parameters:
	--------------------
	Number of irreps     = 8
	Number of MOs        = 28
	Number of active MOs = 28

	Label	# MOs	# FZDC	# DOCC	# SOCC	# VIRT	# FZVR
	-----	-----	------	------	------	------	------
	 Ag	   7	    0	    1	    0	    6	    0
	 B1g	   1	    0	    0	    0	    1	    0
	 B2g	   3	    0	    0	    0	    3	    0
	 B3g	   3	    0	    0	    0	    3	    0
	 Au	   1	    0	    0	    0	    1	    0
	 B1u	   7	    0	    0	    0	    7	    0
	 B2u	   3	    0	    0	    0	    3	    0
	 B3u	   3	    0	    0	    0	    3	    0

	Nuclear Rep. energy (chkpt) =      0.52721213436078
	SCF energy          (chkpt) =     -1.10138150919389

	Size of irrep 0 of <ab|cd> integrals:      0.015 (MW) /      0.121 (MB)
	Size of irrep 1 of <ab|cd> integrals:      0.004 (MW) /      0.031 (MB)
	Size of irrep 2 of <ab|cd> integrals:      0.008 (MW) /      0.065 (MB)
	Size of irrep 3 of <ab|cd> integrals:      0.008 (MW) /      0.065 (MB)
	Size of irrep 4 of <ab|cd> integrals:      0.004 (MW) /      0.031 (MB)
	Size of irrep 5 of <ab|cd> integrals:      0.015 (MW) /      0.119 (MB)
	Size of irrep 6 of <ab|cd> integrals:      0.008 (MW) /      0.065 (MB)
	Size of irrep 7 of <ab|cd> integrals:      0.008 (MW) /      0.065 (MB)
	Total:                                     0.070 (MW) /      0.561 (MB)

	Size of irrep 0 of <ia|bc> integrals:      0.001 (MW) /      0.006 (MB)
	Size of irrep 1 of <ia|bc> integrals:      0.000 (MW) /      0.000 (MB)
	Size of irrep 2 of <ia|bc> integrals:      0.000 (MW) /      0.002 (MB)
	Size of irrep 3 of <ia|bc> integrals:      0.000 (MW) /      0.002 (MB)
	Size of irrep 4 of <ia|bc> integrals:      0.000 (MW) /      0.000 (MB)
	Size of irrep 5 of <ia|bc> integrals:      0.001 (MW) /      0.007 (MB)
	Size of irrep 6 of <ia|bc> integrals:      0.000 (MW) /      0.002 (MB)
	Size of irrep 7 of <ia|bc> integrals:      0.000 (MW) /      0.002 (MB)
	Total:                                     0.003 (MW) /      0.022 (MB)

	Size of irrep 0 of tijab amplitudes:       0.000 (MW) /      0.001 (MB)
	Size of irrep 1 of tijab amplitudes:       0.000 (MW) /      0.000 (MB)
	Size of irrep 2 of tijab amplitudes:       0.000 (MW) /      0.000 (MB)
	Size of irrep 3 of tijab amplitudes:       0.000 (MW) /      0.000 (MB)
	Size of irrep 4 of tijab amplitudes:       0.000 (MW) /      0.000 (MB)
	Size of irrep 5 of tijab amplitudes:       0.000 (MW) /      0.000 (MB)
	Size of irrep 6 of tijab amplitudes:       0.000 (MW) /      0.000 (MB)
	Size of irrep 7 of tijab amplitudes:       0.000 (MW) /      0.000 (MB)
	Total:                                     0.000 (MW) /      0.001 (MB)


	Sorting File: A <ij|kl> nbuckets = 1
	Sorting File: C <ia|jb> nbuckets = 1
	Sorting File: D <ij|ab> nbuckets = 1
	Sorting File: E <ai|jk> nbuckets = 1
	Sorting File: F <ia|bc> nbuckets = 1
	One-electron energy          =     -2.20625553830442
	Two-electron (AA) energy     =      0.00000000000000
	Two-electron (BB) energy     =      0.00000000000000
	Two-electron (AB) energy     =      0.57766189474975
	Two-electron energy          =      0.57766189474975
	Frozen-core energy (transqt) =      0.00000000000000
	Reference energy             =     -1.10138150919389

*** tstop() called on lawn-143-215-103-161.lawn.gatech.edu at Fri Apr 27 14:40:17 2012
Module time:
	user time   =       0.01 seconds =       0.00 minutes
	system time =       0.03 seconds =       0.00 minutes
	total time  =          0 seconds =       0.00 minutes
Total time:
	user time   =       0.16 seconds =       0.00 minutes
	system time =       0.11 seconds =       0.00 minutes
	total time  =          1 seconds =       0.02 minutes

*** tstart() called on lawn-143-215-103-161.lawn.gatech.edu
*** at Fri Apr 27 14:40:17 2012

			*************************
			*                       *
			*          MP2          *
			*                       *
			*************************

	Nuclear rep. energy     =    0.527212134360779
	SCF energy              =   -1.101381509193892

	Input parameters:
	-----------------
	Wave function 	=	MP2
	Reference WFN 	=	RHF
	Derivative    	=	NONE
	Cache Level   	=	2
	Cache Type    	=	LRU
	Memory (MB)   	=	250.0
	Print Level   	=	1
	OPDM          	=	NO
	SCS           	=	False
	MP2_OS_SCALE  	=	0.000000
	MP2_SS_SCALE  	=	0.000000

	Scaled_OS correlation energy      =   -0.035592639776523
	Scaled_SS correlation energy      =    0.000000000000000
	SCS-MP2 correlation energy        =   -0.035592639776523
      * SCS-MP2 total energy              =   -1.136974148970415

	Opposite-spin correlation energy  =   -0.033219797124755
	Same-spin correlation energy      =    0.000000000000000
	MP2 correlation energy            =   -0.033219797124755
      * MP2 total energy                  =   -1.134601306318647


*** tstop() called on lawn-143-215-103-161.lawn.gatech.edu at Fri Apr 27 14:40:17 2012
Module time:
	user time   =       0.01 seconds =       0.00 minutes
	system time =       0.03 seconds =       0.00 minutes
	total time  =          0 seconds =       0.00 minutes
Total time:
	user time   =       0.18 seconds =       0.00 minutes
	system time =       0.14 seconds =       0.00 minutes
	total time  =          1 seconds =       0.02 minutes

  //>>>>>>>>>>>>>>>>>>>>>>>>>>>>>>>>>>>//
  //   CBS Computation: CCSD / 3-21G   //
  //<<<<<<<<<<<<<<<<<<<<<<<<<<<<<<<<<<<//


*** tstart() called on lawn-143-215-103-161.lawn.gatech.edu
*** at Fri Apr 27 14:40:17 2012

	There are an even number of electrons - assuming singlet.
	Specify the multiplicity with the MULTP option in the
	input if this is incorrect


         ---------------------------------------------------------
                                   SCF
            by Justin Turney, Rob Parrish, and Andy Simmonett
                              RHF Reference
                        1 Threads,    250 MiB Core
         ---------------------------------------------------------

  ==> Geometry <==

    Molecular point group: d2h

    Geometry (in Angstrom), charge = 0, multiplicity = 1:

       Center              X                  Y                   Z       
    ------------   -----------------  -----------------  -----------------
           H          0.000000000000     0.000000000000    -0.501863646625
           H          0.000000000000     0.000000000000     0.501863646625

  Running in d2h symmetry.

  Nuclear repulsion =    0.527212134360779

  Charge       = 0
  Multiplicity = 1
  Electrons    = 2
  Nalpha       = 1
  Nbeta        = 1

  ==> Algorithm <==

  SCF Algorithm Type is PK.
  DIIS enabled.
  MOM disabled.
  Fractional occupation disabled.
  Guess Type is CORE.
  Energy threshold   = 1.00e-08
  Density threshold  = 1.00e-08
  Integral threshold = 0.00e+00

  ==> Primary Basis <==

  Basis Set: 3-21g
    Number of shells: 4
    Number of basis function: 4
    Number of Cartesian functions: 4
    Spherical Harmonics?: false
    Max angular momentum: 0

  ==> Pre-Iterations <==

  Minimum eigenvalue in the overlap matrix is 1.6541320018E-01.
  Using Symmetric Orthogonalization.
  SCF Guess: Core (One-Electron) Hamiltonian.

  Initial RHF energy:    -0.58272578004611

   -------------------------------------------------------
    Irrep   Nso     Nmo     Nalpha   Nbeta   Ndocc  Nsocc
   -------------------------------------------------------
     Ag         2       2       1       1       1       0
     B1g        0       0       0       0       0       0
     B2g        0       0       0       0       0       0
     B3g        0       0       0       0       0       0
     Au         0       0       0       0       0       0
     B1u        2       2       0       0       0       0
     B2u        0       0       0       0       0       0
     B3u        0       0       0       0       0       0
   -------------------------------------------------------
    Total       4       4       1       1       1       0
   -------------------------------------------------------

  ==> Integral Setup <==

 MINTS: Wrapper to libmints.
   by Justin Turney

   Calculation information:
      Number of atoms:                   2
      Number of AO shells:               4
      Number of SO shells:               2
      Number of primitives:              6
      Number of atomic orbitals:         4
      Number of basis functions:         4

      Number of irreps:                  8
      Number of functions per irrep: [   2    0    0    0    0    2    0    0 ]

      Overlap, kinetic, potential, dipole, and quadrupole integrals
        stored in file 35.

      Computing two-electron integrals...done
      Computed 31 non-zero two-electron integrals.
        Stored in file 33.

  ==> Iterations <==

                        Total Energy        Delta E     Density RMS

   @RHF iter   1:    -1.05993450013554   -4.77209e-01   0.00000e+00 
   @RHF iter   2:    -1.08997923032021   -3.00447e-02   4.52023e-02 DIIS
   @RHF iter   3:    -1.09069528385522   -7.16054e-04   8.09414e-03 DIIS
   @RHF iter   4:    -1.09069528472235   -8.67128e-10   8.92081e-06 DIIS
   @RHF iter   5:    -1.09069528385314    8.69209e-10   8.93149e-06 DIIS
   @RHF iter   6:    -1.09069528472235   -8.69210e-10   8.91407e-06 DIIS
   @RHF iter   7:    -1.09069528450485    2.17503e-10   4.45573e-06 DIIS
   @RHF iter   8:    -1.09069528472235   -2.17503e-10   4.46129e-06 DIIS
   @RHF iter   9:    -1.09069528433556    3.86787e-10   5.94966e-06 DIIS
   @RHF iter  10:    -1.09069528472235   -3.86787e-10   5.95260e-06 DIIS

  ==> Post-Iterations <==

	Orbital Energies (a.u.)
	-----------------------

	Doubly Occupied:                                                      

	   1Ag    -0.522069  

	Virtual:                                                              

	   1B1u    0.187038     2Ag     1.069710     2B1u    1.296470  

	Final Occupation by Irrep:
	         Ag   B1g   B2g   B3g    Au   B1u   B2u   B3u 
	DOCC [     1,    0,    0,    0,    0,    0,    0,    0 ]

  Energy converged.

  @RHF Final Energy:    -1.09069528472235

   => Energetics <=

    Nuclear Repulsion Energy =          0.5272121343607794
    One-Electron Energy =              -2.1916774238288088
    Two-Electron Energy =               0.5737700047456784
    DFT Functional Energy =             0.0000000000000000
    Empirical Dispersion Energy =       0.0000000000000000
    Total Energy =                     -1.0906952847223510

  ==> Properties <==

  Nuclear Dipole Moment: (a.u.)
     X:     0.0000      Y:     0.0000      Z:     0.0000

  Electronic Dipole Moment: (a.u.)
     X:     0.0000      Y:     0.0000      Z:     0.0000

  Dipole Moment: (a.u.)
     X:     0.0000      Y:     0.0000      Z:     0.0000     Total:     0.0000

  Dipole Moment: (Debye)
     X:     0.0000      Y:     0.0000      Z:     0.0000     Total:     0.0000


  Saving occupied orbitals to File 180.

*** tstop() called on lawn-143-215-103-161.lawn.gatech.edu at Fri Apr 27 14:40:17 2012
Module time:
	user time   =       0.03 seconds =       0.00 minutes
	system time =       0.00 seconds =       0.00 minutes
	total time  =          0 seconds =       0.00 minutes
Total time:
	user time   =       0.21 seconds =       0.00 minutes
	system time =       0.14 seconds =       0.00 minutes
	total time  =          1 seconds =       0.02 minutes

*** tstart() called on lawn-143-215-103-161.lawn.gatech.edu
*** at Fri Apr 27 14:40:17 2012


	**************************************************
	* TRANSQT2: Program to transform integrals from  *
	*           the SO basis to the MO basis.        *
	*                                                *
	*            Daniel, David, & Justin             *
	**************************************************


	Input parameters:
	-----------------
	Wave function   =	CCSD
	Backtransform   =	No
	Print Level     =	1
	Print TEIs      =	No
	Reference wfn   =	RHF
	Derivative      =	None
	Delete TEI File =	Yes
	Memory (Mbytes) =	250.0
	Cache Level     =	2
	Cache Type      =	LRU
	Chkpt Parameters:
	--------------------
	Number of irreps     = 8
	Number of SOs        = 4
	Number of MOs        = 4
	Number of active MOs = 4

	Label	# SOs	# FZDC	# DOCC	# SOCC	# VIRT	# FZVR
	-----	-----	------	------	------	------	------
	 Ag	   2	    0	    1	    0	    1	    0
	 B1g	   0	    0	    0	    0	    0	    0
	 B2g	   0	    0	    0	    0	    0	    0
	 B3g	   0	    0	    0	    0	    0	    0
	 Au	   0	    0	    0	    0	    0	    0
	 B1u	   2	    0	    0	    0	    2	    0
	 B2u	   0	    0	    0	    0	    0	    0
	 B3u	   0	    0	    0	    0	    0	    0

	Nuclear Rep. energy (chkpt) =      0.52721213436078
	SCF energy          (chkpt) =     -1.09069528472235

	Presorting SO-basis two-electron integrals.
	Sorting File: SO Ints (pq,rs) nbuckets = 1
	Frozen-core energy =    0.000000000000000
	Starting first half-transformation.
	Sorting half-transformed integrals.
	Starting second half-transformation.
	Two-electron integral transformation complete.

*** tstop() called on lawn-143-215-103-161.lawn.gatech.edu at Fri Apr 27 14:40:17 2012
Module time:
	user time   =       0.00 seconds =       0.00 minutes
	system time =       0.01 seconds =       0.00 minutes
	total time  =          0 seconds =       0.00 minutes
Total time:
	user time   =       0.21 seconds =       0.00 minutes
	system time =       0.15 seconds =       0.00 minutes
	total time  =          1 seconds =       0.02 minutes

*** tstart() called on lawn-143-215-103-161.lawn.gatech.edu
*** at Fri Apr 27 14:40:17 2012


			**************************
			*                        *
			*         CCSORT         *
			*                        *
			**************************


	Input parameters:
	-----------------
	Wave function   =	CCSD
	Reference wfn   =	RHF
	Derivative      =	None
	Memory (Mbytes) =	250.0
	AO Basis        =	NONE
	Make (ab|cd)    =	True
	Make unpacked (ab|cd) =	False
	Cache Level     =	2
	Cache Type      =	LRU
	Local CC        =     No


	Chkpt Parameters:
	--------------------
	Number of irreps     = 8
	Number of MOs        = 4
	Number of active MOs = 4

	Label	# MOs	# FZDC	# DOCC	# SOCC	# VIRT	# FZVR
	-----	-----	------	------	------	------	------
	 Ag	   2	    0	    1	    0	    1	    0
	 B1g	   0	    0	    0	    0	    0	    0
	 B2g	   0	    0	    0	    0	    0	    0
	 B3g	   0	    0	    0	    0	    0	    0
	 Au	   0	    0	    0	    0	    0	    0
	 B1u	   2	    0	    0	    0	    2	    0
	 B2u	   0	    0	    0	    0	    0	    0
	 B3u	   0	    0	    0	    0	    0	    0

	Nuclear Rep. energy (chkpt) =      0.52721213436078
	SCF energy          (chkpt) =     -1.09069528472235

	Size of irrep 0 of <ab|cd> integrals:      0.000 (MW) /      0.000 (MB)
	Size of irrep 1 of <ab|cd> integrals:      0.000 (MW) /      0.000 (MB)
	Size of irrep 2 of <ab|cd> integrals:      0.000 (MW) /      0.000 (MB)
	Size of irrep 3 of <ab|cd> integrals:      0.000 (MW) /      0.000 (MB)
	Size of irrep 4 of <ab|cd> integrals:      0.000 (MW) /      0.000 (MB)
	Size of irrep 5 of <ab|cd> integrals:      0.000 (MW) /      0.000 (MB)
	Size of irrep 6 of <ab|cd> integrals:      0.000 (MW) /      0.000 (MB)
	Size of irrep 7 of <ab|cd> integrals:      0.000 (MW) /      0.000 (MB)
	Total:                                     0.000 (MW) /      0.000 (MB)

	Size of irrep 0 of <ia|bc> integrals:      0.000 (MW) /      0.000 (MB)
	Size of irrep 1 of <ia|bc> integrals:      0.000 (MW) /      0.000 (MB)
	Size of irrep 2 of <ia|bc> integrals:      0.000 (MW) /      0.000 (MB)
	Size of irrep 3 of <ia|bc> integrals:      0.000 (MW) /      0.000 (MB)
	Size of irrep 4 of <ia|bc> integrals:      0.000 (MW) /      0.000 (MB)
	Size of irrep 5 of <ia|bc> integrals:      0.000 (MW) /      0.000 (MB)
	Size of irrep 6 of <ia|bc> integrals:      0.000 (MW) /      0.000 (MB)
	Size of irrep 7 of <ia|bc> integrals:      0.000 (MW) /      0.000 (MB)
	Total:                                     0.000 (MW) /      0.000 (MB)

	Size of irrep 0 of tijab amplitudes:       0.000 (MW) /      0.000 (MB)
	Size of irrep 1 of tijab amplitudes:       0.000 (MW) /      0.000 (MB)
	Size of irrep 2 of tijab amplitudes:       0.000 (MW) /      0.000 (MB)
	Size of irrep 3 of tijab amplitudes:       0.000 (MW) /      0.000 (MB)
	Size of irrep 4 of tijab amplitudes:       0.000 (MW) /      0.000 (MB)
	Size of irrep 5 of tijab amplitudes:       0.000 (MW) /      0.000 (MB)
	Size of irrep 6 of tijab amplitudes:       0.000 (MW) /      0.000 (MB)
	Size of irrep 7 of tijab amplitudes:       0.000 (MW) /      0.000 (MB)
	Total:                                     0.000 (MW) /      0.000 (MB)


	Sorting File: A <ij|kl> nbuckets = 1
	Sorting File: B(+) <ab|cd> nbuckets = 1
	Sorting File: C <ia|jb> nbuckets = 1
	Sorting File: D <ij|ab> nbuckets = 1
	Sorting File: E <ai|jk> nbuckets = 1
	Sorting File: F <ia|bc> nbuckets = 1
	One-electron energy          =     -2.19167742382881
	Two-electron (AA) energy     =      0.00000000000000
	Two-electron (BB) energy     =      0.00000000000000
	Two-electron (AB) energy     =      0.57377000474568
	Two-electron energy          =      0.57377000474568
	Frozen-core energy (transqt) =      0.00000000000000
	Reference energy             =     -1.09069528472235

*** tstop() called on lawn-143-215-103-161.lawn.gatech.edu at Fri Apr 27 14:40:17 2012
Module time:
	user time   =       0.01 seconds =       0.00 minutes
	system time =       0.03 seconds =       0.00 minutes
	total time  =          0 seconds =       0.00 minutes
Total time:
	user time   =       0.22 seconds =       0.00 minutes
	system time =       0.18 seconds =       0.00 minutes
	total time  =          1 seconds =       0.02 minutes

*** tstart() called on lawn-143-215-103-161.lawn.gatech.edu
*** at Fri Apr 27 14:40:17 2012

			**************************
			*                        *
			*        CCENERGY        *
			*                        *
			**************************

	Nuclear Rep. energy (chkpt)   =    0.527212134360779
	SCF energy          (chkpt)   =   -1.090695284722351
	Reference energy    (file100) =   -1.090695284722351

	Input parameters:
	-----------------
	Wave function   =     CCSD
	Reference wfn   =     RHF
	Memory (Mbytes) =     250.0
	Maxiter         =     50
	Convergence     =     1.0e-11
	Restart         =     No
	DIIS            =     Yes
	AO Basis        =     NONE
	ABCD            =     NEW
	Cache Level     =     2
	Cache Type      =     LOW
	Print Level     =     1
	Num. of threads =     1
	# Amps to Print =     10
	Print MP2 Amps? =     No
	Analyze T2 Amps =     No
	Print Pair Ener =     No
	Local CC        =     No
	SCS-MP2         =     False
	SCSN-MP2        =     False
	SCS-CCSD        =     False

	            Solving CC Amplitude Equations
	            ------------------------------
  Iter             Energy              RMS        T1Diag      D1Diag    New D1Diag
  ----     ---------------------    ---------   ----------  ----------  ----------
     0        -0.020226581235363    0.000e+00    0.000000    0.000000    0.000000
     1        -0.027118663045899    4.094e-02    0.004641    0.006564    0.006564
     2        -0.031988264549300    1.816e-02    0.008794    0.012437    0.012437
     3        -0.031986568854179    8.600e-04    0.008810    0.012460    0.012460
     4        -0.031998978309723    8.208e-05    0.008791    0.012432    0.012432
     5        -0.031995644505013    1.108e-05    0.008787    0.012427    0.012427
     6        -0.031995317920592    1.651e-06    0.008787    0.012426    0.012426
     7        -0.031995561111303    2.970e-06    0.008787    0.012427    0.012427
     8        -0.031995609355883    1.984e-06    0.008787    0.012427    0.012427
     9        -0.031996052235222    1.789e-06    0.008787    0.012427    0.012427
    10        -0.031996050512447    7.325e-09    0.008787    0.012427    0.012427
    11        -0.031996050512416    2.449e-13    0.008787    0.012427    0.012427

	Iterations converged.


	Largest TIA Amplitudes:
	          0   0         0.0124272424

	Largest TIjAb Amplitudes:
	  0   0   1   1        -0.1464056293
	  0   0   1   2        -0.0534982827
	  0   0   2   1        -0.0534982827
	  0   0   2   2        -0.0336212479
	  0   0   0   0        -0.0329111546

	SCF energy       (chkpt)              =   -1.090695284722351
	Reference energy (file100)            =   -1.090695284722351

	Opposite-spin MP2 correlation energy  =   -0.020226581235363
	Same-spin MP2 correlation energy      =    0.000000000000000
	MP2 correlation energy                =   -0.020226581235363
      * MP2 total energy                      =   -1.110921865957714

	Opposite-spin CCSD correlation energy =   -0.031996050632292
	Same-spin CCSD correlation energy     =    0.000000000000000
	CCSD correlation energy               =   -0.031996050512416
      * CCSD total energy                     =   -1.122691335234767


*** tstop() called on lawn-143-215-103-161.lawn.gatech.edu at Fri Apr 27 14:40:18 2012
Module time:
	user time   =       0.16 seconds =       0.00 minutes
	system time =       0.24 seconds =       0.00 minutes
	total time  =          1 seconds =       0.02 minutes
Total time:
	user time   =       0.39 seconds =       0.01 minutes
	system time =       0.42 seconds =       0.01 minutes
	total time  =          2 seconds =       0.03 minutes

  //>>>>>>>>>>>>>>>>>>>>>>>>>>>>>>>>>>>//
  //            CBS Results            //
  //<<<<<<<<<<<<<<<<<<<<<<<<<<<<<<<<<<<//


   ==> highest_1 <==

   HI-zeta (3) Total Energy:             -1.10138151

   ==> corl_xtpl_helgaker_2 <==

   LO-zeta (2) Correlation Energy:       -0.02874156
   HI-zeta (3) Correlation Energy:       -0.03321980
   Extrapolated Correlation Energy:      -0.03510537
   Beta (coefficient) Value:              0.05091053

   ==> highest_1 <==

   HI-zeta (0) Correlation Energy:       -0.03199605

   ==> highest_1 <==

   HI-zeta (0) Correlation Energy:       -0.02022658

   ==> Components <==

  ---------------------------------------------------------------------------------------------------------
                          Method / Basis                      Rqd       Energy [H]   Variable
  ---------------------------------------------------------------------------------------------------------
                             scf / cc-pvdz                             -1.09948223   SCF TOTAL ENERGY
                             mp2 / cc-pvdz                      *      -0.02874156   MP2 CORRELATION ENERGY
                             scf / cc-pvtz                      *      -1.10138151   SCF TOTAL ENERGY
                             mp2 / cc-pvtz                      *      -0.03321980   MP2 CORRELATION ENERGY
                             scf / 3-21g                               -1.09069528   SCF TOTAL ENERGY
                             mp2 / 3-21g                        *      -0.02022658   MP2 CORRELATION ENERGY
                            ccsd / 3-21g                        *      -0.03199605   CCSD CORRELATION ENERGY
  ---------------------------------------------------------------------------------------------------------

   ==> Stages <==

  ---------------------------------------------------------------------------------------------------------
      Stage               Method / Basis                       Wt       Energy [H]   Scheme
  ---------------------------------------------------------------------------------------------------------
        scf                  scf / cc-pvtz                      1      -1.10138151   highest_1
       corl                  mp2 / cc-pv[dt]z                   1      -0.03510537   corl_xtpl_helgaker_2
      delta                 ccsd / 3-21g                        1      -0.03199605   highest_1
      delta                  mp2 / 3-21g                       -1      -0.02022658   highest_1
  ---------------------------------------------------------------------------------------------------------

   ==> CBS <==

  ---------------------------------------------------------------------------------------------------------
      Stage               Method / Basis                                Energy [H]   Scheme
  ---------------------------------------------------------------------------------------------------------
        scf                  scf / cc-pvtz                             -1.10138151   highest_1
       corl                  mp2 / cc-pv[dt]z                          -0.03510537   corl_xtpl_helgaker_2
      delta           ccsd - mp2 / 3-21g                               -0.01176947   highest_1
      total                  CBS                                       -1.14825635   
  ---------------------------------------------------------------------------------------------------------

  //>>>>>>>>>>>>>>>>>>>>>>>>>>>>>>>>>>>//
  //    Loading displacement 2 of 3    //
  //<<<<<<<<<<<<<<<<<<<<<<<<<<<<<<<<<<<//

  //>>>>>>>>>>>>>>>>>>>>>>>>>>>>>>>>>>>//
  //             CBS Setup             //
  //<<<<<<<<<<<<<<<<<<<<<<<<<<<<<<<<<<<//

    Naive listing of computations required.
            scf / cc-pvtz                  for  SCF TOTAL ENERGY
            mp2 / cc-pvdz                  for  MP2 CORRELATION ENERGY
            mp2 / cc-pvtz                  for  MP2 CORRELATION ENERGY
           ccsd / 3-21g                    for  CCSD CORRELATION ENERGY
            mp2 / 3-21g                    for  MP2 CORRELATION ENERGY

    Enlightened listing of computations required.
            mp2 / cc-pvdz                  for  MP2 CORRELATION ENERGY
            mp2 / cc-pvtz                  for  MP2 CORRELATION ENERGY
           ccsd / 3-21g                    for  CCSD CORRELATION ENERGY

  //>>>>>>>>>>>>>>>>>>>>>>>>>>>>>>>>>>>//
  //   CBS Computation: MP2 / CC-PVDZ  //
  //<<<<<<<<<<<<<<<<<<<<<<<<<<<<<<<<<<<//


*** tstart() called on lawn-143-215-103-161.lawn.gatech.edu
*** at Fri Apr 27 14:40:18 2012

	There are an even number of electrons - assuming singlet.
	Specify the multiplicity with the MULTP option in the
	input if this is incorrect


         ---------------------------------------------------------
                                   SCF
            by Justin Turney, Rob Parrish, and Andy Simmonett
                              RHF Reference
                        1 Threads,    250 MiB Core
         ---------------------------------------------------------

  ==> Geometry <==

    Molecular point group: d2h

    Geometry (in Angstrom), charge = 0, multiplicity = 1:

       Center              X                  Y                   Z       
    ------------   -----------------  -----------------  -----------------
           H          0.000000000000     0.000000000000    -0.498136353375
           H          0.000000000000     0.000000000000     0.498136353375

  Running in d2h symmetry.

  Nuclear repulsion =    0.531156986439743

  Charge       = 0
  Multiplicity = 1
  Electrons    = 2
  Nalpha       = 1
  Nbeta        = 1

  ==> Algorithm <==

  SCF Algorithm Type is PK.
  DIIS enabled.
  MOM disabled.
  Fractional occupation disabled.
  Guess Type is CORE.
  Energy threshold   = 1.00e-08
  Density threshold  = 1.00e-08
  Integral threshold = 0.00e+00

  ==> Primary Basis <==

  Basis Set: cc-pvdz
    Number of shells: 6
    Number of basis function: 10
    Number of Cartesian functions: 10
    Spherical Harmonics?: true
    Max angular momentum: 1

  ==> Pre-Iterations <==

  Minimum eigenvalue in the overlap matrix is 1.1183848000E-01.
  Using Symmetric Orthogonalization.
  SCF Guess: Core (One-Electron) Hamiltonian.

  Initial RHF energy:    -0.59967951723856

   -------------------------------------------------------
    Irrep   Nso     Nmo     Nalpha   Nbeta   Ndocc  Nsocc
   -------------------------------------------------------
     Ag         3       3       1       1       1       0
     B1g        0       0       0       0       0       0
     B2g        1       1       0       0       0       0
     B3g        1       1       0       0       0       0
     Au         0       0       0       0       0       0
     B1u        3       3       0       0       0       0
     B2u        1       1       0       0       0       0
     B3u        1       1       0       0       0       0
   -------------------------------------------------------
    Total      10      10       1       1       1       0
   -------------------------------------------------------

  ==> Integral Setup <==

 MINTS: Wrapper to libmints.
   by Justin Turney

   Calculation information:
      Number of atoms:                   2
      Number of AO shells:               6
      Number of SO shells:               3
      Number of primitives:             10
      Number of atomic orbitals:        10
      Number of basis functions:        10

      Number of irreps:                  8
      Number of functions per irrep: [   3    0    1    1    0    3    1    1 ]

      Overlap, kinetic, potential, dipole, and quadrupole integrals
        stored in file 35.

      Computing two-electron integrals...done
      Computed 292 non-zero two-electron integrals.
        Stored in file 33.

  ==> Iterations <==

                        Total Energy        Delta E     Density RMS

   @RHF iter   1:    -1.05089818771425   -4.51219e-01   0.00000e+00 
   @RHF iter   2:    -1.09922922567522   -4.83310e-02   4.03202e-02 DIIS
   @RHF iter   3:    -1.10081972516699   -1.59050e-03   8.48935e-03 DIIS
   @RHF iter   4:    -1.10082160788337   -1.88272e-06   2.27338e-04 DIIS
   @RHF iter   5:    -1.10082161756243   -9.67906e-09   2.21781e-05 DIIS
   @RHF iter   6:    -1.10082161756244   -1.59872e-14   1.85024e-08 DIIS

  ==> Post-Iterations <==

	Orbital Energies (a.u.)
	-----------------------

	Doubly Occupied:                                                      

	   1Ag    -0.525872  

	Virtual:                                                              

	   1B1u    0.144397     2Ag     0.538778     2B1u    0.796328  
	   1B2u    1.286858     1B3u    1.286858     3Ag     1.683278  
	   1B3g    1.873897     1B2g    1.873897     3B1u    2.741956  

	Final Occupation by Irrep:
	         Ag   B1g   B2g   B3g    Au   B1u   B2u   B3u 
	DOCC [     1,    0,    0,    0,    0,    0,    0,    0 ]

  Energy converged.

  @RHF Final Energy:    -1.10082161756244

   => Energetics <=

    Nuclear Repulsion Energy =          0.5311569864397429
    One-Electron Energy =              -2.2122141241570819
    Two-Electron Energy =               0.5802355201548981
    DFT Functional Energy =             0.0000000000000000
    Empirical Dispersion Energy =       0.0000000000000000
    Total Energy =                     -1.1008216175624408

  ==> Properties <==

  Nuclear Dipole Moment: (a.u.)
     X:     0.0000      Y:     0.0000      Z:     0.0000

  Electronic Dipole Moment: (a.u.)
     X:     0.0000      Y:     0.0000      Z:     0.0000

  Dipole Moment: (a.u.)
     X:     0.0000      Y:     0.0000      Z:     0.0000     Total:     0.0000

  Dipole Moment: (Debye)
     X:     0.0000      Y:     0.0000      Z:     0.0000     Total:     0.0000


  Saving occupied orbitals to File 180.

*** tstop() called on lawn-143-215-103-161.lawn.gatech.edu at Fri Apr 27 14:40:18 2012
Module time:
	user time   =       0.03 seconds =       0.00 minutes
	system time =       0.01 seconds =       0.00 minutes
	total time  =          0 seconds =       0.00 minutes
Total time:
	user time   =       0.42 seconds =       0.01 minutes
	system time =       0.43 seconds =       0.01 minutes
	total time  =          2 seconds =       0.03 minutes

*** tstart() called on lawn-143-215-103-161.lawn.gatech.edu
*** at Fri Apr 27 14:40:18 2012


	**************************************************
	* TRANSQT2: Program to transform integrals from  *
	*           the SO basis to the MO basis.        *
	*                                                *
	*            Daniel, David, & Justin             *
	**************************************************


	Input parameters:
	-----------------
	Wave function   =	MP2
	Backtransform   =	No
	Print Level     =	1
	Print TEIs      =	No
	Reference wfn   =	RHF
	Derivative      =	None
	Delete TEI File =	Yes
	Memory (Mbytes) =	250.0
	Cache Level     =	2
	Cache Type      =	LRU
	Chkpt Parameters:
	--------------------
	Number of irreps     = 8
	Number of SOs        = 10
	Number of MOs        = 10
	Number of active MOs = 10

	Label	# SOs	# FZDC	# DOCC	# SOCC	# VIRT	# FZVR
	-----	-----	------	------	------	------	------
	 Ag	   3	    0	    1	    0	    2	    0
	 B1g	   0	    0	    0	    0	    0	    0
	 B2g	   1	    0	    0	    0	    1	    0
	 B3g	   1	    0	    0	    0	    1	    0
	 Au	   0	    0	    0	    0	    0	    0
	 B1u	   3	    0	    0	    0	    3	    0
	 B2u	   1	    0	    0	    0	    1	    0
	 B3u	   1	    0	    0	    0	    1	    0

	Nuclear Rep. energy (chkpt) =      0.53115698643974
	SCF energy          (chkpt) =     -1.10082161756244

	Presorting SO-basis two-electron integrals.
	Sorting File: SO Ints (pq,rs) nbuckets = 1
	Frozen-core energy =    0.000000000000000
	Starting first half-transformation.
	Sorting half-transformed integrals.
	Starting second half-transformation.
	Two-electron integral transformation complete.

*** tstop() called on lawn-143-215-103-161.lawn.gatech.edu at Fri Apr 27 14:40:18 2012
Module time:
	user time   =       0.01 seconds =       0.00 minutes
	system time =       0.01 seconds =       0.00 minutes
	total time  =          0 seconds =       0.00 minutes
Total time:
	user time   =       0.43 seconds =       0.01 minutes
	system time =       0.44 seconds =       0.01 minutes
	total time  =          2 seconds =       0.03 minutes

*** tstart() called on lawn-143-215-103-161.lawn.gatech.edu
*** at Fri Apr 27 14:40:18 2012


			**************************
			*                        *
			*         CCSORT         *
			*                        *
			**************************


	Input parameters:
	-----------------
	Wave function   =	MP2
	Reference wfn   =	RHF
	Derivative      =	None
	Memory (Mbytes) =	250.0
	AO Basis        =	NONE
	Make (ab|cd)    =	False
	Make unpacked (ab|cd) =	False
	Cache Level     =	2
	Cache Type      =	LRU
	Local CC        =     No


	Chkpt Parameters:
	--------------------
	Number of irreps     = 8
	Number of MOs        = 10
	Number of active MOs = 10

	Label	# MOs	# FZDC	# DOCC	# SOCC	# VIRT	# FZVR
	-----	-----	------	------	------	------	------
	 Ag	   3	    0	    1	    0	    2	    0
	 B1g	   0	    0	    0	    0	    0	    0
	 B2g	   1	    0	    0	    0	    1	    0
	 B3g	   1	    0	    0	    0	    1	    0
	 Au	   0	    0	    0	    0	    0	    0
	 B1u	   3	    0	    0	    0	    3	    0
	 B2u	   1	    0	    0	    0	    1	    0
	 B3u	   1	    0	    0	    0	    1	    0

	Nuclear Rep. energy (chkpt) =      0.53115698643974
	SCF energy          (chkpt) =     -1.10082161756244

	Size of irrep 0 of <ab|cd> integrals:      0.000 (MW) /      0.002 (MB)
	Size of irrep 1 of <ab|cd> integrals:      0.000 (MW) /      0.000 (MB)
	Size of irrep 2 of <ab|cd> integrals:      0.000 (MW) /      0.001 (MB)
	Size of irrep 3 of <ab|cd> integrals:      0.000 (MW) /      0.001 (MB)
	Size of irrep 4 of <ab|cd> integrals:      0.000 (MW) /      0.000 (MB)
	Size of irrep 5 of <ab|cd> integrals:      0.000 (MW) /      0.002 (MB)
	Size of irrep 6 of <ab|cd> integrals:      0.000 (MW) /      0.001 (MB)
	Size of irrep 7 of <ab|cd> integrals:      0.000 (MW) /      0.001 (MB)
	Total:                                     0.001 (MW) /      0.008 (MB)

	Size of irrep 0 of <ia|bc> integrals:      0.000 (MW) /      0.000 (MB)
	Size of irrep 1 of <ia|bc> integrals:      0.000 (MW) /      0.000 (MB)
	Size of irrep 2 of <ia|bc> integrals:      0.000 (MW) /      0.000 (MB)
	Size of irrep 3 of <ia|bc> integrals:      0.000 (MW) /      0.000 (MB)
	Size of irrep 4 of <ia|bc> integrals:      0.000 (MW) /      0.000 (MB)
	Size of irrep 5 of <ia|bc> integrals:      0.000 (MW) /      0.000 (MB)
	Size of irrep 6 of <ia|bc> integrals:      0.000 (MW) /      0.000 (MB)
	Size of irrep 7 of <ia|bc> integrals:      0.000 (MW) /      0.000 (MB)
	Total:                                     0.000 (MW) /      0.001 (MB)

	Size of irrep 0 of tijab amplitudes:       0.000 (MW) /      0.000 (MB)
	Size of irrep 1 of tijab amplitudes:       0.000 (MW) /      0.000 (MB)
	Size of irrep 2 of tijab amplitudes:       0.000 (MW) /      0.000 (MB)
	Size of irrep 3 of tijab amplitudes:       0.000 (MW) /      0.000 (MB)
	Size of irrep 4 of tijab amplitudes:       0.000 (MW) /      0.000 (MB)
	Size of irrep 5 of tijab amplitudes:       0.000 (MW) /      0.000 (MB)
	Size of irrep 6 of tijab amplitudes:       0.000 (MW) /      0.000 (MB)
	Size of irrep 7 of tijab amplitudes:       0.000 (MW) /      0.000 (MB)
	Total:                                     0.000 (MW) /      0.000 (MB)


	Sorting File: A <ij|kl> nbuckets = 1
	Sorting File: C <ia|jb> nbuckets = 1
	Sorting File: D <ij|ab> nbuckets = 1
	Sorting File: E <ai|jk> nbuckets = 1
	Sorting File: F <ia|bc> nbuckets = 1
	One-electron energy          =     -2.21221412908752
	Two-electron (AA) energy     =      0.00000000000000
	Two-electron (BB) energy     =      0.00000000000000
	Two-electron (AB) energy     =      0.58023552508533
	Two-electron energy          =      0.58023552508533
	Frozen-core energy (transqt) =      0.00000000000000
	Reference energy             =     -1.10082161756244

*** tstop() called on lawn-143-215-103-161.lawn.gatech.edu at Fri Apr 27 14:40:18 2012
Module time:
	user time   =       0.01 seconds =       0.00 minutes
	system time =       0.03 seconds =       0.00 minutes
	total time  =          0 seconds =       0.00 minutes
Total time:
	user time   =       0.44 seconds =       0.01 minutes
	system time =       0.47 seconds =       0.01 minutes
	total time  =          2 seconds =       0.03 minutes

*** tstart() called on lawn-143-215-103-161.lawn.gatech.edu
*** at Fri Apr 27 14:40:18 2012

			*************************
			*                       *
			*          MP2          *
			*                       *
			*************************

	Nuclear rep. energy     =    0.531156986439743
	SCF energy              =   -1.100821617562441

	Input parameters:
	-----------------
	Wave function 	=	MP2
	Reference WFN 	=	RHF
	Derivative    	=	NONE
	Cache Level   	=	2
	Cache Type    	=	LRU
	Memory (MB)   	=	250.0
	Print Level   	=	1
	OPDM          	=	NO
	SCS           	=	False
	MP2_OS_SCALE  	=	0.000000
	MP2_SS_SCALE  	=	0.000000

	Scaled_OS correlation energy      =   -0.030718289681978
	Scaled_SS correlation energy      =    0.000000000000000
	SCS-MP2 correlation energy        =   -0.030718289681978
      * SCS-MP2 total energy              =   -1.131539907244419

	Opposite-spin correlation energy  =   -0.028670403703179
	Same-spin correlation energy      =    0.000000000000000
	MP2 correlation energy            =   -0.028670403703179
      * MP2 total energy                  =   -1.129492021265620


*** tstop() called on lawn-143-215-103-161.lawn.gatech.edu at Fri Apr 27 14:40:18 2012
Module time:
	user time   =       0.01 seconds =       0.00 minutes
	system time =       0.02 seconds =       0.00 minutes
	total time  =          0 seconds =       0.00 minutes
Total time:
	user time   =       0.46 seconds =       0.01 minutes
	system time =       0.49 seconds =       0.01 minutes
	total time  =          2 seconds =       0.03 minutes

  //>>>>>>>>>>>>>>>>>>>>>>>>>>>>>>>>>>>//
  //   CBS Computation: MP2 / CC-PVTZ  //
  //<<<<<<<<<<<<<<<<<<<<<<<<<<<<<<<<<<<//


*** tstart() called on lawn-143-215-103-161.lawn.gatech.edu
*** at Fri Apr 27 14:40:18 2012

	There are an even number of electrons - assuming singlet.
	Specify the multiplicity with the MULTP option in the
	input if this is incorrect


         ---------------------------------------------------------
                                   SCF
            by Justin Turney, Rob Parrish, and Andy Simmonett
                              RHF Reference
                        1 Threads,    250 MiB Core
         ---------------------------------------------------------

  ==> Geometry <==

    Molecular point group: d2h

    Geometry (in Angstrom), charge = 0, multiplicity = 1:

       Center              X                  Y                   Z       
    ------------   -----------------  -----------------  -----------------
           H          0.000000000000     0.000000000000    -0.498136353375
           H          0.000000000000     0.000000000000     0.498136353375

  Running in d2h symmetry.

  Nuclear repulsion =    0.531156986439743

  Charge       = 0
  Multiplicity = 1
  Electrons    = 2
  Nalpha       = 1
  Nbeta        = 1

  ==> Algorithm <==

  SCF Algorithm Type is PK.
  DIIS enabled.
  MOM disabled.
  Fractional occupation disabled.
  Guess Type is CORE.
  Energy threshold   = 1.00e-08
  Density threshold  = 1.00e-08
  Integral threshold = 0.00e+00

  ==> Primary Basis <==

  Basis Set: cc-pvtz
    Number of shells: 12
    Number of basis function: 28
    Number of Cartesian functions: 30
    Spherical Harmonics?: true
    Max angular momentum: 2

  ==> Pre-Iterations <==

  Minimum eigenvalue in the overlap matrix is 6.8042505376E-03.
  Using Symmetric Orthogonalization.
  SCF Guess: Core (One-Electron) Hamiltonian.

  Initial RHF energy:    -0.60148569493276

   -------------------------------------------------------
    Irrep   Nso     Nmo     Nalpha   Nbeta   Ndocc  Nsocc
   -------------------------------------------------------
     Ag         7       7       1       1       1       0
     B1g        1       1       0       0       0       0
     B2g        3       3       0       0       0       0
     B3g        3       3       0       0       0       0
     Au         1       1       0       0       0       0
     B1u        7       7       0       0       0       0
     B2u        3       3       0       0       0       0
     B3u        3       3       0       0       0       0
   -------------------------------------------------------
    Total      28      28       1       1       1       0
   -------------------------------------------------------

  ==> Integral Setup <==

 MINTS: Wrapper to libmints.
   by Justin Turney

   Calculation information:
      Number of atoms:                   2
      Number of AO shells:              12
      Number of SO shells:               6
      Number of primitives:             16
      Number of atomic orbitals:        30
      Number of basis functions:        28

      Number of irreps:                  8
      Number of functions per irrep: [   7    1    3    3    1    7    3    3 ]

      Overlap, kinetic, potential, dipole, and quadrupole integrals
        stored in file 35.

      Computing two-electron integrals...done
      Computed 10381 non-zero two-electron integrals.
        Stored in file 33.

  ==> Iterations <==

                        Total Energy        Delta E     Density RMS

   @RHF iter   1:    -1.05330331983229   -4.51818e-01   0.00000e+00 
   @RHF iter   2:    -1.10085759399295   -4.75543e-02   1.11415e-02 DIIS
   @RHF iter   3:    -1.10272113850196   -1.86354e-03   3.09111e-03 DIIS
   @RHF iter   4:    -1.10273978908177   -1.86506e-05   4.41664e-04 DIIS
   @RHF iter   5:    -1.10273983651359   -4.74318e-08   2.27318e-05 DIIS
   @RHF iter   6:    -1.10273983688271   -3.69113e-10   1.03512e-06 DIIS
   @RHF iter   7:    -1.10273983688290   -1.94511e-13   2.47627e-08 DIIS

  ==> Post-Iterations <==

	Orbital Energies (a.u.)
	-----------------------

	Doubly Occupied:                                                      

	   1Ag    -0.527133  

	Virtual:                                                              

	   1B1u    0.125202     2Ag     0.327959     2B1u    0.547702  
	   1B2u    0.671814     1B3u    0.671814     3Ag     1.009118  
	   1B3g    1.063860     1B2g    1.063860     3B1u    1.475911  
	   4Ag     2.519618     4B1u    2.591907     1B1g    3.205473  
	   5Ag     3.205473     2B2u    3.228982     2B3u    3.228982  
	   6Ag     3.462123     1Au     3.826156     5B1u    3.826156  
	   3B2u    3.944159     3B3u    3.944159     2B3g    4.002780  
	   2B2g    4.002780     6B1u    4.095869     3B3g    4.919620  
	   3B2g    4.919620     7Ag     4.985142     7B1u    6.232587  

	Final Occupation by Irrep:
	         Ag   B1g   B2g   B3g    Au   B1u   B2u   B3u 
	DOCC [     1,    0,    0,    0,    0,    0,    0,    0 ]

  Energy converged.

  @RHF Final Energy:    -1.10273983688290

   => Energetics <=

    Nuclear Repulsion Energy =          0.5311569864397429
    One-Electron Energy =              -2.2135269136680922
    Two-Electron Energy =               0.5796300903454470
    DFT Functional Energy =             0.0000000000000000
    Empirical Dispersion Energy =       0.0000000000000000
    Total Energy =                     -1.1027398368829022

  ==> Properties <==

  Nuclear Dipole Moment: (a.u.)
     X:     0.0000      Y:     0.0000      Z:     0.0000

  Electronic Dipole Moment: (a.u.)
     X:     0.0000      Y:     0.0000      Z:     0.0000

  Dipole Moment: (a.u.)
     X:     0.0000      Y:     0.0000      Z:     0.0000     Total:     0.0000

  Dipole Moment: (Debye)
     X:     0.0000      Y:     0.0000      Z:     0.0000     Total:     0.0000


  Saving occupied orbitals to File 180.

*** tstop() called on lawn-143-215-103-161.lawn.gatech.edu at Fri Apr 27 14:40:18 2012
Module time:
	user time   =       0.07 seconds =       0.00 minutes
	system time =       0.01 seconds =       0.00 minutes
	total time  =          0 seconds =       0.00 minutes
Total time:
	user time   =       0.53 seconds =       0.01 minutes
	system time =       0.50 seconds =       0.01 minutes
	total time  =          2 seconds =       0.03 minutes

*** tstart() called on lawn-143-215-103-161.lawn.gatech.edu
*** at Fri Apr 27 14:40:18 2012


	**************************************************
	* TRANSQT2: Program to transform integrals from  *
	*           the SO basis to the MO basis.        *
	*                                                *
	*            Daniel, David, & Justin             *
	**************************************************


	Input parameters:
	-----------------
	Wave function   =	MP2
	Backtransform   =	No
	Print Level     =	1
	Print TEIs      =	No
	Reference wfn   =	RHF
	Derivative      =	None
	Delete TEI File =	Yes
	Memory (Mbytes) =	250.0
	Cache Level     =	2
	Cache Type      =	LRU
	Chkpt Parameters:
	--------------------
	Number of irreps     = 8
	Number of SOs        = 28
	Number of MOs        = 28
	Number of active MOs = 28

	Label	# SOs	# FZDC	# DOCC	# SOCC	# VIRT	# FZVR
	-----	-----	------	------	------	------	------
	 Ag	   7	    0	    1	    0	    6	    0
	 B1g	   1	    0	    0	    0	    1	    0
	 B2g	   3	    0	    0	    0	    3	    0
	 B3g	   3	    0	    0	    0	    3	    0
	 Au	   1	    0	    0	    0	    1	    0
	 B1u	   7	    0	    0	    0	    7	    0
	 B2u	   3	    0	    0	    0	    3	    0
	 B3u	   3	    0	    0	    0	    3	    0

	Nuclear Rep. energy (chkpt) =      0.53115698643974
	SCF energy          (chkpt) =     -1.10273983688290

	Presorting SO-basis two-electron integrals.
	Sorting File: SO Ints (pq,rs) nbuckets = 1
	Frozen-core energy =    0.000000000000000
	Starting first half-transformation.
	Sorting half-transformed integrals.
	Starting second half-transformation.
	Two-electron integral transformation complete.

*** tstop() called on lawn-143-215-103-161.lawn.gatech.edu at Fri Apr 27 14:40:18 2012
Module time:
	user time   =       0.01 seconds =       0.00 minutes
	system time =       0.01 seconds =       0.00 minutes
	total time  =          0 seconds =       0.00 minutes
Total time:
	user time   =       0.54 seconds =       0.01 minutes
	system time =       0.51 seconds =       0.01 minutes
	total time  =          2 seconds =       0.03 minutes

*** tstart() called on lawn-143-215-103-161.lawn.gatech.edu
*** at Fri Apr 27 14:40:18 2012


			**************************
			*                        *
			*         CCSORT         *
			*                        *
			**************************


	Input parameters:
	-----------------
	Wave function   =	MP2
	Reference wfn   =	RHF
	Derivative      =	None
	Memory (Mbytes) =	250.0
	AO Basis        =	NONE
	Make (ab|cd)    =	False
	Make unpacked (ab|cd) =	False
	Cache Level     =	2
	Cache Type      =	LRU
	Local CC        =     No


	Chkpt Parameters:
	--------------------
	Number of irreps     = 8
	Number of MOs        = 28
	Number of active MOs = 28

	Label	# MOs	# FZDC	# DOCC	# SOCC	# VIRT	# FZVR
	-----	-----	------	------	------	------	------
	 Ag	   7	    0	    1	    0	    6	    0
	 B1g	   1	    0	    0	    0	    1	    0
	 B2g	   3	    0	    0	    0	    3	    0
	 B3g	   3	    0	    0	    0	    3	    0
	 Au	   1	    0	    0	    0	    1	    0
	 B1u	   7	    0	    0	    0	    7	    0
	 B2u	   3	    0	    0	    0	    3	    0
	 B3u	   3	    0	    0	    0	    3	    0

	Nuclear Rep. energy (chkpt) =      0.53115698643974
	SCF energy          (chkpt) =     -1.10273983688290

	Size of irrep 0 of <ab|cd> integrals:      0.015 (MW) /      0.121 (MB)
	Size of irrep 1 of <ab|cd> integrals:      0.004 (MW) /      0.031 (MB)
	Size of irrep 2 of <ab|cd> integrals:      0.008 (MW) /      0.065 (MB)
	Size of irrep 3 of <ab|cd> integrals:      0.008 (MW) /      0.065 (MB)
	Size of irrep 4 of <ab|cd> integrals:      0.004 (MW) /      0.031 (MB)
	Size of irrep 5 of <ab|cd> integrals:      0.015 (MW) /      0.119 (MB)
	Size of irrep 6 of <ab|cd> integrals:      0.008 (MW) /      0.065 (MB)
	Size of irrep 7 of <ab|cd> integrals:      0.008 (MW) /      0.065 (MB)
	Total:                                     0.070 (MW) /      0.561 (MB)

	Size of irrep 0 of <ia|bc> integrals:      0.001 (MW) /      0.006 (MB)
	Size of irrep 1 of <ia|bc> integrals:      0.000 (MW) /      0.000 (MB)
	Size of irrep 2 of <ia|bc> integrals:      0.000 (MW) /      0.002 (MB)
	Size of irrep 3 of <ia|bc> integrals:      0.000 (MW) /      0.002 (MB)
	Size of irrep 4 of <ia|bc> integrals:      0.000 (MW) /      0.000 (MB)
	Size of irrep 5 of <ia|bc> integrals:      0.001 (MW) /      0.007 (MB)
	Size of irrep 6 of <ia|bc> integrals:      0.000 (MW) /      0.002 (MB)
	Size of irrep 7 of <ia|bc> integrals:      0.000 (MW) /      0.002 (MB)
	Total:                                     0.003 (MW) /      0.022 (MB)

	Size of irrep 0 of tijab amplitudes:       0.000 (MW) /      0.001 (MB)
	Size of irrep 1 of tijab amplitudes:       0.000 (MW) /      0.000 (MB)
	Size of irrep 2 of tijab amplitudes:       0.000 (MW) /      0.000 (MB)
	Size of irrep 3 of tijab amplitudes:       0.000 (MW) /      0.000 (MB)
	Size of irrep 4 of tijab amplitudes:       0.000 (MW) /      0.000 (MB)
	Size of irrep 5 of tijab amplitudes:       0.000 (MW) /      0.000 (MB)
	Size of irrep 6 of tijab amplitudes:       0.000 (MW) /      0.000 (MB)
	Size of irrep 7 of tijab amplitudes:       0.000 (MW) /      0.000 (MB)
	Total:                                     0.000 (MW) /      0.001 (MB)


	Sorting File: A <ij|kl> nbuckets = 1
	Sorting File: C <ia|jb> nbuckets = 1
	Sorting File: D <ij|ab> nbuckets = 1
	Sorting File: E <ai|jk> nbuckets = 1
	Sorting File: F <ia|bc> nbuckets = 1
	One-electron energy          =     -2.21352692142799
	Two-electron (AA) energy     =      0.00000000000000
	Two-electron (BB) energy     =      0.00000000000000
	Two-electron (AB) energy     =      0.57963009810535
	Two-electron energy          =      0.57963009810535
	Frozen-core energy (transqt) =      0.00000000000000
	Reference energy             =     -1.10273983688290

[...]
	Same-spin correlation energy      =    0.000000000000000
	MP2 correlation energy            =   -0.033254578597090
      * MP2 total energy                  =   -1.166721945833058


*** tstop() called on lawn-143-215-103-161.lawn.gatech.edu at Fri Apr 27 14:41:11 2012
Module time:
	user time   =       0.01 seconds =       0.00 minutes
	system time =       0.02 seconds =       0.00 minutes
	total time  =          0 seconds =       0.00 minutes
Total time:
	user time   =      22.40 seconds =       0.37 minutes
	system time =      11.86 seconds =       0.20 minutes
	total time  =         55 seconds =       0.92 minutes

  //>>>>>>>>>>>>>>>>>>>>>>>>>>>>>>>>>>>>>>>>//
  // CBS Computation: CCSD(T) / AUG-CC-PVTZ //
  //<<<<<<<<<<<<<<<<<<<<<<<<<<<<<<<<<<<<<<<<//


*** tstart() called on lawn-143-215-103-161.lawn.gatech.edu
*** at Fri Apr 27 14:41:11 2012

	There are an even number of electrons - assuming singlet.
	Specify the multiplicity with the MULTP option in the
	input if this is incorrect


         ---------------------------------------------------------
                                   SCF
            by Justin Turney, Rob Parrish, and Andy Simmonett
                              RHF Reference
                        1 Threads,    250 MiB Core
         ---------------------------------------------------------

  ==> Geometry <==

    Molecular point group: c1

    Geometry (in Angstrom), charge = 0, multiplicity = 1:

       Center              X                  Y                   Z       
    ------------   -----------------  -----------------  -----------------
           H          0.000000000000     0.000000000000    -0.370698483106
           H          0.000000000000     0.000000000000     0.370698483106

  Running in c1 symmetry.

  Nuclear repulsion =    0.713756911218707

  Charge       = 0
  Multiplicity = 1
  Electrons    = 2
  Nalpha       = 1
  Nbeta        = 1

  ==> Algorithm <==

  SCF Algorithm Type is PK.
  DIIS enabled.
  MOM disabled.
  Fractional occupation disabled.
  Guess Type is CORE.
  Energy threshold   = 1.00e-08
  Density threshold  = 1.00e-08
  Integral threshold = 0.00e+00

  ==> Primary Basis <==

  Basis Set: aug-cc-pvtz
    Number of shells: 18
    Number of basis function: 46
    Number of Cartesian functions: 50
    Spherical Harmonics?: true
    Max angular momentum: 2

  ==> Pre-Iterations <==

  Minimum eigenvalue in the overlap matrix is 5.4282257119E-05.
  Using Symmetric Orthogonalization.
  SCF Guess: Core (One-Electron) Hamiltonian.

  Initial RHF energy:    -0.56960632364022

   -------------------------------------------------------
    Irrep   Nso     Nmo     Nalpha   Nbeta   Ndocc  Nsocc
   -------------------------------------------------------
     A         46      46       1       1       1       0
   -------------------------------------------------------
    Total      46      46       1       1       1       0
   -------------------------------------------------------

  ==> Integral Setup <==

 MINTS: Wrapper to libmints.
   by Justin Turney

   Calculation information:
      Number of atoms:                   2
      Number of AO shells:              18
      Number of SO shells:              18
      Number of primitives:             22
      Number of atomic orbitals:        50
      Number of basis functions:        46

      Number of irreps:                  1
      Number of functions per irrep: [  46 ]

      Overlap, kinetic, potential, dipole, and quadrupole integrals
        stored in file 35.

      Computing two-electron integrals...done
      Computed 129929 non-zero two-electron integrals.
        Stored in file 33.

  ==> Iterations <==

                        Total Energy        Delta E     Density RMS

   @RHF iter   1:    -1.07371588300156   -5.04110e-01   0.00000e+00 
   @RHF iter   2:    -1.13116663025765   -5.74507e-02   2.29700e-03 DIIS
   @RHF iter   3:    -1.13299778273252   -1.83115e-03   5.78851e-04 DIIS
   @RHF iter   4:    -1.13302156684487   -2.37841e-05   1.04746e-04 DIIS
   @RHF iter   5:    -1.13302170501082   -1.38166e-07   7.59402e-06 DIIS
   @RHF iter   6:    -1.13302170576886   -7.58040e-10   5.21990e-07 DIIS
   @RHF iter   7:    -1.13302170577283   -3.97815e-12   6.24915e-08 DIIS

  ==> Post-Iterations <==

	Orbital Energies (a.u.)
	-----------------------

	Doubly Occupied:                                                      

	   1A     -0.594232  

	Virtual:                                                              

	   2A      0.052556     3A      0.053112     4A      0.190304  
	   5A      0.208873     6A      0.208873     7A      0.284712  
	   8A      0.297437     9A      0.297437    10A      0.417454  
	  11A      0.420391    12A      0.737474    13A      0.791318  
	  14A      0.791318    15A      0.883909    16A      0.883909  
	  17A      0.903110    18A      0.931392    19A      0.931392  
	  20A      1.047051    21A      1.048112    22A      1.048112  
	  23A      1.066970    24A      1.066970    25A      1.523300  
	  26A      1.938317    27A      1.938317    28A      2.126269  
	  29A      2.595596    30A      2.935733    31A      3.615622  
	  32A      3.615622    33A      3.633617    34A      3.633617  
	  35A      4.156067    36A      4.405757    37A      4.405757  
	  38A      4.430561    39A      4.430561    40A      4.488230  
	  41A      4.488230    42A      5.188932    43A      5.783449  
	  44A      5.783449    45A      5.988824    46A      7.119443  

	Final Occupation by Irrep:
	          A 
	DOCC [     1 ]

  Energy converged.

  @RHF Final Energy:    -1.13302170577283

   => Energetics <=

    Nuclear Repulsion Energy =          0.7137569112187073
    One-Electron Energy =              -2.5050926967880001
    Two-Electron Energy =               0.6583140797964595
    DFT Functional Energy =             0.0000000000000000
    Empirical Dispersion Energy =       0.0000000000000000
    Total Energy =                     -1.1330217057728333

  ==> Properties <==

  Nuclear Dipole Moment: (a.u.)
     X:     0.0000      Y:     0.0000      Z:     0.0000

  Electronic Dipole Moment: (a.u.)
     X:    -0.0000      Y:     0.0000      Z:    -0.0000

  Dipole Moment: (a.u.)
     X:    -0.0000      Y:     0.0000      Z:    -0.0000     Total:     0.0000

  Dipole Moment: (Debye)
     X:    -0.0000      Y:     0.0000      Z:    -0.0000     Total:     0.0000


  Saving occupied orbitals to File 180.

*** tstop() called on lawn-143-215-103-161.lawn.gatech.edu at Fri Apr 27 14:41:12 2012
Module time:
	user time   =       0.18 seconds =       0.00 minutes
	system time =       0.02 seconds =       0.00 minutes
	total time  =          1 seconds =       0.02 minutes
Total time:
	user time   =      22.58 seconds =       0.38 minutes
	system time =      11.88 seconds =       0.20 minutes
	total time  =         56 seconds =       0.93 minutes

*** tstart() called on lawn-143-215-103-161.lawn.gatech.edu
*** at Fri Apr 27 14:41:12 2012


	**************************************************
	* TRANSQT2: Program to transform integrals from  *
	*           the SO basis to the MO basis.        *
	*                                                *
	*            Daniel, David, & Justin             *
	**************************************************


	Input parameters:
	-----------------
	Wave function   =	CCSD_T
	Backtransform   =	No
	Print Level     =	1
	Print TEIs      =	No
	Reference wfn   =	RHF
	Derivative      =	None
	Delete TEI File =	Yes
	Memory (Mbytes) =	250.0
	Cache Level     =	2
	Cache Type      =	LRU
	Chkpt Parameters:
	--------------------
	Number of irreps     = 1
	Number of SOs        = 46
	Number of MOs        = 46
	Number of active MOs = 46

	Label	# SOs	# FZDC	# DOCC	# SOCC	# VIRT	# FZVR
	-----	-----	------	------	------	------	------
	 A	   46	    0	    1	    0	    45	    0

	Nuclear Rep. energy (chkpt) =      0.71375691121871
	SCF energy          (chkpt) =     -1.13302170577283

	Presorting SO-basis two-electron integrals.
	Sorting File: SO Ints (pq,rs) nbuckets = 1
	Frozen-core energy =    0.000000000000000
	Starting first half-transformation.
	Sorting half-transformed integrals.
	Starting second half-transformation.
	Two-electron integral transformation complete.

*** tstop() called on lawn-143-215-103-161.lawn.gatech.edu at Fri Apr 27 14:41:13 2012
Module time:
	user time   =       0.39 seconds =       0.01 minutes
	system time =       0.13 seconds =       0.00 minutes
	total time  =          1 seconds =       0.02 minutes
Total time:
	user time   =      22.97 seconds =       0.38 minutes
	system time =      12.01 seconds =       0.20 minutes
	total time  =         57 seconds =       0.95 minutes

*** tstart() called on lawn-143-215-103-161.lawn.gatech.edu
*** at Fri Apr 27 14:41:13 2012


			**************************
			*                        *
			*         CCSORT         *
			*                        *
			**************************


	Input parameters:
	-----------------
	Wave function   =	CCSD_T
	Reference wfn   =	RHF
	Derivative      =	None
	Memory (Mbytes) =	250.0
	AO Basis        =	NONE
	Make (ab|cd)    =	True
	Make unpacked (ab|cd) =	False
	Cache Level     =	2
	Cache Type      =	LRU
	Local CC        =     No


	Chkpt Parameters:
	--------------------
	Number of irreps     = 1
	Number of MOs        = 46
	Number of active MOs = 46

	Label	# MOs	# FZDC	# DOCC	# SOCC	# VIRT	# FZVR
	-----	-----	------	------	------	------	------
	 A	   46	    0	    1	    0	    45	    0

	Nuclear Rep. energy (chkpt) =      0.71375691121871
	SCF energy          (chkpt) =     -1.13302170577283

	Size of irrep 0 of <ab|cd> integrals:      4.101 (MW) /     32.805 (MB)
	Total:                                     4.101 (MW) /     32.805 (MB)

	Size of irrep 0 of <ia|bc> integrals:      0.091 (MW) /      0.729 (MB)
	Total:                                     0.091 (MW) /      0.729 (MB)

	Size of irrep 0 of tijab amplitudes:       0.002 (MW) /      0.016 (MB)
	Total:                                     0.002 (MW) /      0.016 (MB)


	Sorting File: A <ij|kl> nbuckets = 1
	Sorting File: B(+) <ab|cd> nbuckets = 1
	Sorting File: C <ia|jb> nbuckets = 1
	Sorting File: D <ij|ab> nbuckets = 1
	Sorting File: E <ai|jk> nbuckets = 1
	Sorting File: F <ia|bc> nbuckets = 1
	One-electron energy          =     -2.50509270798639
	Two-electron (AA) energy     =      0.00000000000000
	Two-electron (BB) energy     =      0.00000000000000
	Two-electron (AB) energy     =      0.65831409099486
	Two-electron energy          =      0.65831409099486
	Frozen-core energy (transqt) =      0.00000000000000
	Reference energy             =     -1.13302170577282

*** tstop() called on lawn-143-215-103-161.lawn.gatech.edu at Fri Apr 27 14:41:13 2012
Module time:
	user time   =       0.09 seconds =       0.00 minutes
	system time =       0.10 seconds =       0.00 minutes
	total time  =          0 seconds =       0.00 minutes
Total time:
	user time   =      23.06 seconds =       0.38 minutes
	system time =      12.11 seconds =       0.20 minutes
	total time  =         57 seconds =       0.95 minutes

*** tstart() called on lawn-143-215-103-161.lawn.gatech.edu
*** at Fri Apr 27 14:41:13 2012

			**************************
			*                        *
			*        CCENERGY        *
			*                        *
			**************************

	Nuclear Rep. energy (chkpt)   =    0.713756911218707
	SCF energy          (chkpt)   =   -1.133021705772833
	Reference energy    (file100) =   -1.133021705772824

	Input parameters:
	-----------------
	Wave function   =   CCSD_T
	Reference wfn   =     RHF
	Memory (Mbytes) =     250.0
	Maxiter         =     50
	Convergence     =     1.0e-11
	Restart         =     No
	DIIS            =     Yes
	AO Basis        =     NONE
	ABCD            =     NEW
	Cache Level     =     2
	Cache Type      =     LOW
	Print Level     =     1
	Num. of threads =     1
	# Amps to Print =     10
	Print MP2 Amps? =     No
	Analyze T2 Amps =     No
	Print Pair Ener =     No
	Local CC        =     No
	SCS-MP2         =     False
	SCSN-MP2        =     False
	SCS-CCSD        =     False

	            Solving CC Amplitude Equations
	            ------------------------------
  Iter             Energy              RMS        T1Diag      D1Diag    New D1Diag
  ----     ---------------------    ---------   ----------  ----------  ----------
     0        -0.031990576694396    6.156e-12    0.000000    0.000000    0.000000
     1        -0.037211146227694    2.506e-02    0.003356    0.004747    0.004747
     2        -0.039587670919289    8.868e-03    0.005085    0.007191    0.007191
     3        -0.039608500867812    1.061e-03    0.005276    0.007462    0.007462
     4        -0.039613302939274    1.481e-04    0.005326    0.007532    0.007532
     5        -0.039612222089574    2.616e-05    0.005336    0.007546    0.007546
     6        -0.039612132759999    4.889e-06    0.005338    0.007550    0.007550
     7        -0.039612215038232    1.009e-06    0.005339    0.007551    0.007551
     8        -0.039612220680830    1.845e-07    0.005339    0.007551    0.007551
     9        -0.039612218560994    4.075e-08    0.005339    0.007551    0.007551
    10        -0.039612218621480    7.246e-09    0.005339    0.007551    0.007551
    11        -0.039612218730649    1.527e-09    0.005339    0.007551    0.007551
    12        -0.039612218764325    2.653e-10    0.005339    0.007551    0.007551
    13        -0.039612218764487    4.307e-11    0.005339    0.007551    0.007551
    14        -0.039612218763616    9.922e-12    0.005339    0.007551    0.007551

	Iterations converged.


	Largest TIA Amplitudes:
	          0   8         0.0053405953
	          0  15        -0.0031846161
	          0   1         0.0030962561
	          0  28         0.0027270986
	          0  43         0.0006996755
	          0  33        -0.0006803835
	          0   5         0.0006049983
	          0  23         0.0000849319

	Largest TIjAb Amplitudes:
	  0   0   2   2        -0.0322003287
	  0   0  16  16        -0.0299997213
	  0   0  17  17        -0.0299997213
	  0   0   2   9        -0.0287861875
	  0   0   9   2        -0.0287861875
	  0   0   8   8        -0.0270952853
	  0   0   9   9        -0.0264962973
	  0   0   2  10        -0.0260387228
	  0   0  10   2        -0.0260387228
	  0   0   9  10        -0.0246655063

	SCF energy       (chkpt)              =   -1.133021705772833
	Reference energy (file100)            =   -1.133021705772824

	Opposite-spin MP2 correlation energy  =   -0.031990576694396
	Same-spin MP2 correlation energy      =    0.000000000000000
	MP2 correlation energy                =   -0.031990576694396
      * MP2 total energy                      =   -1.165012282467219

	Opposite-spin CCSD correlation energy =   -0.039612218772263
	Same-spin CCSD correlation energy     =    0.000000000000000
	CCSD correlation energy               =   -0.039612218763616
      * CCSD total energy                     =   -1.172633924536439


*** tstop() called on lawn-143-215-103-161.lawn.gatech.edu at Fri Apr 27 14:41:15 2012
Module time:
	user time   =       0.56 seconds =       0.01 minutes
	system time =       0.65 seconds =       0.01 minutes
	total time  =          2 seconds =       0.03 minutes
Total time:
	user time   =      23.62 seconds =       0.39 minutes
	system time =      12.76 seconds =       0.21 minutes
	total time  =         59 seconds =       0.98 minutes

*** tstart() called on lawn-143-215-103-161.lawn.gatech.edu
*** at Fri Apr 27 14:41:15 2012

			**************************
			*                        *
			*        CCTRIPLES       *
			*                        *
			**************************


	Wave function   =    CCSD_T
	Reference wfn   =      RHF

	Nuclear Rep. energy (chkpt)   =    0.713756911218707
	SCF energy          (chkpt)   =   -1.133021705772833
	Reference energy    (file100) =   -1.133021705772824
	CCSD energy         (file100) =   -0.039612218763616
	Total CCSD energy   (file100) =   -1.172633924536439

	Number of ijk index combinations: 1
	(T) energy                    =   -0.000000000000000
      * CCSD(T) total energy          =   -1.172633924536439


*** tstop() called on lawn-143-215-103-161.lawn.gatech.edu at Fri Apr 27 14:41:15 2012
Module time:
	user time   =       0.05 seconds =       0.00 minutes
	system time =       0.09 seconds =       0.00 minutes
	total time  =          0 seconds =       0.00 minutes
Total time:
	user time   =      23.67 seconds =       0.39 minutes
	system time =      12.85 seconds =       0.21 minutes
	total time  =         59 seconds =       0.98 minutes

  //>>>>>>>>>>>>>>>>>>>>>>>>>>>>>>>>>>>//
  //            CBS Results            //
  //<<<<<<<<<<<<<<<<<<<<<<<<<<<<<<<<<<<//


   ==> highest_1 <==

   HI-zeta (0) Total Energy:             -1.13346737

   ==> corl_xtpl_helgaker_2 <==

   LO-zeta (3) Correlation Energy:       -0.03199058
   HI-zeta (4) Correlation Energy:       -0.03325458
   Extrapolated Correlation Energy:      -0.03417696
   Beta (coefficient) Value:              0.05903231

   ==> highest_1 <==

   HI-zeta (0) Correlation Energy:       -0.03961222

   ==> highest_1 <==

   HI-zeta (0) Correlation Energy:       -0.03199058

   ==> Components <==

  ---------------------------------------------------------------------------------------------------------
                          Method / Basis                      Rqd       Energy [H]   Variable
  ---------------------------------------------------------------------------------------------------------
                             scf / aug-cc-pvqz                  *      -1.13346737   SCF TOTAL ENERGY
                             mp2 / aug-cc-pvqz                  *      -0.03325458   MP2 CORRELATION ENERGY
                             scf / aug-cc-pvtz                         -1.13302171   SCF TOTAL ENERGY
                             mp2 / aug-cc-pvtz                  *      -0.03199058   MP2 CORRELATION ENERGY
                         ccsd(t) / aug-cc-pvtz                  *      -0.03961222   CCSD(T) CORRELATION ENERGY
                            ccsd / aug-cc-pvtz                         -0.03961222   CCSD CORRELATION ENERGY
  ---------------------------------------------------------------------------------------------------------

   ==> Stages <==

  ---------------------------------------------------------------------------------------------------------
      Stage               Method / Basis                       Wt       Energy [H]   Scheme
  ---------------------------------------------------------------------------------------------------------
        scf                  scf / aug-cc-pvqz                  1      -1.13346737   highest_1
       corl                  mp2 / aug-cc-pv[tq]z               1      -0.03417696   corl_xtpl_helgaker_2
      delta              ccsd(t) / aug-cc-pvtz                  1      -0.03961222   highest_1
      delta                  mp2 / aug-cc-pvtz                 -1      -0.03199058   highest_1
  ---------------------------------------------------------------------------------------------------------

   ==> CBS <==

  ---------------------------------------------------------------------------------------------------------
      Stage               Method / Basis                                Energy [H]   Scheme
  ---------------------------------------------------------------------------------------------------------
        scf                  scf / aug-cc-pvqz                         -1.13346737   highest_1
       corl                  mp2 / aug-cc-pv[tq]z                      -0.03417696   corl_xtpl_helgaker_2
      delta        ccsd(t) - mp2 / aug-cc-pvtz                         -0.00762164   highest_1
      total                  CBS                                       -1.17526597   
  ---------------------------------------------------------------------------------------------------------

*** PSI4 exiting successfully. Buy a developer a beer!
