    -----------------------------------------------------------------------
          PSI4: An Open-Source Ab Initio Electronic Structure Package
                              PSI 4.0.0-beta1 Driver

               Git: Rev 8268e5ba0276eef671d5bc4a44cf66fa46407463

    J. M. Turney, A. C. Simmonett, R. M. Parrish, E. G. Hohenstein,
    F. A. Evangelista, J. T. Fermann, B. J. Mintz, L. A. Burns, J. J. Wilke,
    M. L. Abrams, N. J. Russ, M. L. Leininger, C. L. Janssen, E. T. Seidl,
    W. D. Allen, H. F. Schaefer, R. A. King, E. F. Valeev, C. D. Sherrill,
    and T. D. Crawford, WIREs Comput. Mol. Sci., (2011) (doi: 10.1002/wcms.93)

                         Additional Contributions by
    A. E. DePrince, M. Saitow, U. Bozkaya, A. Yu. Sokolov
    -----------------------------------------------------------------------


    Using LocalCommunicator (Number of processes = 1)

    Memory level set to 256.000 MB

  ==> Input File <==

--------------------------------------------------------------------------
#! UHF-CCSD(T)/cc-pVDZ $^{3}B@@1$ CH2 geometry optimization via analytic gradients

memory 250 mb

molecule ch2 {
  0 3
  C
  H 1 1.1
  H 1 1.1 2 109.0
}

set globals {
  reference uhf
  basis cc-pvdz
  dertype first
  # The next 3 options control the geometry optimization tolerances
  max_disp_g_convergence  1e-6
  max_force_g_convergence 1.0e-6
  max_energy_g_convergence    7
  e_convergence 10
  r_convergence 10
}

optimize('CCSD(T)')

refnuc     =   6.06482004489131   #TEST
refscf     = -38.92655208442658   #TEST
refccsd_t  =  -0.11716018769631   #TEST
reftotal   = -39.04371227103925   #TEST

compare_values(refnuc,   ch2.nuclear_repulsion_energy(),          5, "Nuclear repulsion energy")  #TEST
compare_values(refscf,   get_variable("SCF total energy"),        6, "SCF energy")                #TEST
compare_values(refccsd_t,  get_variable("CCSD(T) correlation energy"), 6, "CCSD(T) contribution")         #TEST
compare_values(reftotal, get_variable("Current energy"),          6, "Total energy")              #TEST
--------------------------------------------------------------------------

  Memory set to 250.000 MiB by Python script.

*** tstart() called on lawn-143-215-103-161.lawn.gatech.edu
*** at Fri Apr 27 14:12:27 2012


         ---------------------------------------------------------
                                   SCF
            by Justin Turney, Rob Parrish, and Andy Simmonett
                              UHF Reference
                        1 Threads,    250 MiB Core
         ---------------------------------------------------------

  ==> Geometry <==

    Molecular point group: c2v

    Geometry (in Angstrom), charge = 0, multiplicity = 3:

       Center              X                  Y                   Z       
    ------------   -----------------  -----------------  -----------------
           C          0.000000000000     0.000000000000    -0.091864689759
           H          0.000000000000    -0.895527070192     0.546908561523
           H          0.000000000000     0.895527070192     0.546908561523

  Running in c2v symmetry.

  Nuclear repulsion =    6.068298005568227

  Charge       = 0
  Multiplicity = 3
  Electrons    = 8
  Nalpha       = 5
  Nbeta        = 3

  ==> Algorithm <==

  SCF Algorithm Type is PK.
  DIIS enabled.
  MOM disabled.
  Fractional occupation disabled.
  Guess Type is CORE.
  Energy threshold   = 1.00e-10
  Density threshold  = 1.00e-08
  Integral threshold = 0.00e+00

  ==> Primary Basis <==

  Basis Set: CC-PVDZ
    Number of shells: 12
    Number of basis function: 24
    Number of Cartesian functions: 25
    Spherical Harmonics?: true
    Max angular momentum: 2

  ==> Pre-Iterations <==

  Minimum eigenvalue in the overlap matrix is 2.9429630952E-02.
  Using Symmetric Orthogonalization.
  SCF Guess: Core (One-Electron) Hamiltonian.

  Initial UHF energy:   -28.44231976508354

   -------------------------------------------------------
    Irrep   Nso     Nmo     Nalpha   Nbeta   Ndocc  Nsocc
   -------------------------------------------------------
     A1        11      11       3       2       2       1
     A2         2       2       0       0       0       0
     B1         4       4       1       0       0       1
     B2         7       7       1       1       1       0
   -------------------------------------------------------
    Total      24      24       5       3       3       2
   -------------------------------------------------------

  ==> Integral Setup <==

 MINTS: Wrapper to libmints.
   by Justin Turney

   Calculation information:
      Number of atoms:                   3
      Number of AO shells:              12
      Number of SO shells:               9
      Number of primitives:             32
      Number of atomic orbitals:        25
      Number of basis functions:        24

      Number of irreps:                  4
      Number of functions per irrep: [  11    2    4    7 ]

      Overlap, kinetic, potential, dipole, and quadrupole integrals
        stored in file 35.

      Computing two-electron integrals...done
      Computed 11412 non-zero two-electron integrals.
        Stored in file 33.

  ==> Iterations <==

                        Total Energy        Delta E     Density RMS

   @UHF iter   1:   -35.12226710194874   -6.67995e+00   0.00000e+00 
   @UHF iter   2:   -38.07619874146306   -2.95393e+00   2.47446e-01 DIIS
   @UHF iter   3:   -38.90113807687993   -8.24939e-01   1.43608e-01 DIIS
   @UHF iter   4:   -38.91579874172635   -1.46607e-02   1.40301e-02 DIIS
   @UHF iter   5:   -38.91721660276711   -1.41786e-03   4.09345e-03 DIIS
   @UHF iter   6:   -38.91736784949019   -1.51247e-04   9.92689e-04 DIIS
   @UHF iter   7:   -38.91737833035361   -1.04809e-05   1.86054e-04 DIIS
   @UHF iter   8:   -38.91737865537387   -3.25020e-07   2.06014e-05 DIIS
   @UHF iter   9:   -38.91737868524731   -2.98734e-08   4.77149e-06 DIIS
   @UHF iter  10:   -38.91737869162040   -6.37309e-09   2.80955e-06 DIIS
   @UHF iter  11:   -38.91737869222852   -6.08125e-10   1.05149e-06 DIIS
   @UHF iter  12:   -38.91737869225136   -2.28368e-11   2.88964e-07 DIIS
   @UHF iter  13:   -38.91737869225203   -6.67910e-13   5.56009e-08 DIIS
   @UHF iter  14:   -38.91737869225204   -1.42109e-14   1.19272e-08 DIIS

  ==> Post-Iterations <==

   @Spin Contamination Metric:   1.210199518E-02
   @S^2 Expected:                2.000000000E+00
   @S^2 Observed:                2.012101995E+00
   @S   Expected:                1.000000000E+00
   @S   Observed:                1.000000000E+00

	Orbital Energies (a.u.)
	-----------------------

	Alpha Occupied:                                                       

	   1A1   -11.279808     2A1    -0.948183     1B2    -0.574840  
	   3A1    -0.492222     1B1    -0.413890  

	Alpha Virtual:                                                        

	   4A1     0.199574     2B2     0.255473     3B2     0.587217  
	   5A1     0.632444     2B1     0.650424     6A1     0.740599  
	   4B2     0.855150     7A1     1.006855     1A2     1.182747  
	   8A1     1.193228     3B1     1.244502     9A1     1.721416  
	   5B2     1.726796     6B2     1.928609     4B1     1.997867  
	   2A2     2.036720    10A1     2.315622    11A1     2.698261  
	   7B2     2.743850  

	Beta Occupied:                                                        

	   1A1   -11.228970     2A1    -0.783471     1B2    -0.535233  

	Beta Virtual:                                                         

	   3A1     0.105281     1B1     0.159004     4A1     0.221021  
	   2B2     0.285269     3B2     0.620941     5A1     0.737973  
	   2B1     0.822031     6A1     0.832333     4B2     0.906448  
	   7A1     1.062089     1A2     1.257736     8A1     1.303650  
	   3B1     1.383571     5B2     1.732543     9A1     1.810140  
	   6B2     1.988311     4B1     2.039560     2A2     2.087798  
	  10A1     2.350790    11A1     2.720420     7B2     2.769588  

	Final Occupation by Irrep:
	         A1    A2    B1    B2 
	DOCC [     2,    0,    0,    1 ]
	SOCC [     1,    0,    1,    0 ]

  Energy converged.

  @UHF Final Energy:   -38.91737869225204

   => Energetics <=

    Nuclear Repulsion Energy =          6.0682980055682272
    One-Electron Energy =             -63.7147359519682155
    Two-Electron Energy =              18.7290592541479448
    DFT Functional Energy =             0.0000000000000000
    Empirical Dispersion Energy =       0.0000000000000000
    Total Energy =                    -38.9173786922520435

  ==> Properties <==

  Nuclear Dipole Moment: (a.u.)
     X:     0.0000      Y:     0.0000      Z:     1.0254

  Electronic Dipole Moment: (a.u.)
     X:     0.0000      Y:     0.0000      Z:    -0.7742

  Dipole Moment: (a.u.)
     X:     0.0000      Y:     0.0000      Z:     0.2512     Total:     0.2512

  Dipole Moment: (Debye)
     X:     0.0000      Y:     0.0000      Z:     0.6386     Total:     0.6386


  Saving occupied orbitals to File 180.

*** tstop() called on lawn-143-215-103-161.lawn.gatech.edu at Fri Apr 27 14:12:27 2012
Module time:
	user time   =       0.08 seconds =       0.00 minutes
	system time =       0.01 seconds =       0.00 minutes
	total time  =          0 seconds =       0.00 minutes
Total time:
	user time   =       0.08 seconds =       0.00 minutes
	system time =       0.01 seconds =       0.00 minutes
	total time  =          0 seconds =       0.00 minutes

*** tstart() called on lawn-143-215-103-161.lawn.gatech.edu
*** at Fri Apr 27 14:12:27 2012


	**************************************************
	* TRANSQT2: Program to transform integrals from  *
	*           the SO basis to the MO basis.        *
	*                                                *
	*            Daniel, David, & Justin             *
	**************************************************


	Input parameters:
	-----------------
	Wave function   =	CCSD_T
	Backtransform   =	No
	Print Level     =	1
	Print TEIs      =	No
	Reference wfn   =	UHF
	Derivative      =	First
	Delete TEI File =	Yes
	Memory (Mbytes) =	250.0
	Cache Level     =	2
	Cache Type      =	LRU
	Chkpt Parameters:
	--------------------
	Number of irreps     = 4
	Number of SOs        = 24
	Number of MOs        = 24
	Number of active MOs = 24

	Label	# SOs	# FZDC	# DOCC	# SOCC	# VIRT	# FZVR
	-----	-----	------	------	------	------	------
	 A1	   11	    0	    2	    1	    8	    0
	 A2	   2	    0	    0	    0	    2	    0
	 B1	   4	    0	    0	    1	    3	    0
	 B2	   7	    0	    1	    0	    6	    0

	Nuclear Rep. energy (chkpt) =      6.06829800556823
	SCF energy          (chkpt) =    -38.91737869225204

	Presorting SO-basis two-electron integrals.
	Sorting File: SO Ints (pq,rs) nbuckets = 1
	Frozen-core energy =    0.000000000000000
	Starting AA/AB first half-transformation.
	Sorting AA/AB half-transformed integrals.
	Starting AA second half-transformation.
	Starting AB second half-transformation.
	Starting BB first half-transformation.
	Sorting BB half-transformed integrals.
	Starting BB second half-transformation.
	Two-electron integral transformation complete.

*** tstop() called on lawn-143-215-103-161.lawn.gatech.edu at Fri Apr 27 14:12:27 2012
Module time:
	user time   =       0.02 seconds =       0.00 minutes
	system time =       0.02 seconds =       0.00 minutes
	total time  =          0 seconds =       0.00 minutes
Total time:
	user time   =       0.10 seconds =       0.00 minutes
	system time =       0.03 seconds =       0.00 minutes
	total time  =          0 seconds =       0.00 minutes

*** tstart() called on lawn-143-215-103-161.lawn.gatech.edu
*** at Fri Apr 27 14:12:27 2012


			**************************
			*                        *
			*         CCSORT         *
			*                        *
			**************************


	Input parameters:
	-----------------
	Wave function   =	CCSD_T
	Reference wfn   =	UHF
	Derivative      =	First
	Memory (Mbytes) =	250.0
	AO Basis        =	NONE
	Make (ab|cd)    =	True
	Make unpacked (ab|cd) =	True
	Cache Level     =	2
	Cache Type      =	LRU
	Local CC        =     No


	Chkpt Parameters:
	--------------------
	Number of irreps     = 4
	Number of MOs        = 24
	Number of active MOs = 24

	Label	# MOs	# FZDC	# DOCC	# SOCC	# VIRT	# FZVR
	-----	-----	------	------	------	------	------
	 A1	   11	    0	    2	    1	    8	    0
	 A2	   2	    0	    0	    0	    2	    0
	 B1	   4	    0	    0	    1	    3	    0
	 B2	   7	    0	    1	    0	    6	    0

	Nuclear Rep. energy (chkpt) =      6.06829800556823
	SCF energy          (chkpt) =    -38.91737869225204

	Size of irrep 0 of <AB|CD> integrals:      0.002 (MW) /      0.018 (MB)
	Size of irrep 1 of <AB|CD> integrals:      0.001 (MW) /      0.009 (MB)
	Size of irrep 2 of <AB|CD> integrals:      0.001 (MW) /      0.010 (MB)
	Size of irrep 3 of <AB|CD> integrals:      0.003 (MW) /      0.023 (MB)
	Total:                                     0.008 (MW) /      0.061 (MB)

	Size of irrep 0 of <ab|cd> integrals:      0.003 (MW) /      0.027 (MB)
	Size of irrep 1 of <ab|cd> integrals:      0.002 (MW) /      0.014 (MB)
	Size of irrep 2 of <ab|cd> integrals:      0.002 (MW) /      0.018 (MB)
	Size of irrep 3 of <ab|cd> integrals:      0.004 (MW) /      0.031 (MB)
	Total:                                     0.011 (MW) /      0.090 (MB)

	Size of irrep 0 of <Ab|Cd> integrals:      0.015 (MW) /      0.123 (MB)
	Size of irrep 1 of <Ab|Cd> integrals:      0.006 (MW) /      0.046 (MB)
	Size of irrep 2 of <Ab|Cd> integrals:      0.007 (MW) /      0.055 (MB)
	Size of irrep 3 of <Ab|Cd> integrals:      0.013 (MW) /      0.108 (MB)
	Total:                                     0.041 (MW) /      0.332 (MB)

	Size of irrep 0 of <IA|BC> integrals:      0.004 (MW) /      0.030 (MB)
	Size of irrep 1 of <IA|BC> integrals:      0.001 (MW) /      0.008 (MB)
	Size of irrep 2 of <IA|BC> integrals:      0.001 (MW) /      0.011 (MB)
	Size of irrep 3 of <IA|BC> integrals:      0.003 (MW) /      0.024 (MB)
	Total:                                     0.009 (MW) /      0.073 (MB)

	Size of irrep 0 of <ia|bc> integrals:      0.003 (MW) /      0.026 (MB)
	Size of irrep 1 of <ia|bc> integrals:      0.001 (MW) /      0.005 (MB)
	Size of irrep 2 of <ia|bc> integrals:      0.001 (MW) /      0.008 (MB)
	Size of irrep 3 of <ia|bc> integrals:      0.003 (MW) /      0.021 (MB)
	Total:                                     0.008 (MW) /      0.060 (MB)

	Size of irrep 0 of <Ia|Bc> integrals:      0.005 (MW) /      0.037 (MB)
	Size of irrep 1 of <Ia|Bc> integrals:      0.001 (MW) /      0.010 (MB)
	Size of irrep 2 of <Ia|Bc> integrals:      0.002 (MW) /      0.015 (MB)
	Size of irrep 3 of <Ia|Bc> integrals:      0.003 (MW) /      0.027 (MB)
	Total:                                     0.011 (MW) /      0.089 (MB)

	Size of irrep 0 of <iA|bC> integrals:      0.003 (MW) /      0.022 (MB)
	Size of irrep 1 of <iA|bC> integrals:      0.001 (MW) /      0.004 (MB)
	Size of irrep 2 of <iA|bC> integrals:      0.001 (MW) /      0.005 (MB)
	Size of irrep 3 of <iA|bC> integrals:      0.002 (MW) /      0.019 (MB)
	Total:                                     0.006 (MW) /      0.050 (MB)

	Size of irrep 0 of tIjAb amplitudes:       0.001 (MW) /      0.007 (MB)
	Size of irrep 1 of tIjAb amplitudes:       0.000 (MW) /      0.001 (MB)
	Size of irrep 2 of tIjAb amplitudes:       0.000 (MW) /      0.001 (MB)
	Size of irrep 3 of tIjAb amplitudes:       0.001 (MW) /      0.005 (MB)
	Total:                                     0.002 (MW) /      0.014 (MB)


	Sorting File: A <IJ|KL> nbuckets = 1
	Sorting File: B <AB|CD> nbuckets = 1
	Sorting File: C <IA|JB> nbuckets = 1
	Sorting File: D <IJ|AB> nbuckets = 1
	Sorting File: E <AI|JK> nbuckets = 1
	Sorting File: F <IA|BC> nbuckets = 1
	Sorting File: F <AI|BC> nbuckets = 1
	Sorting File: A <ij|kl> nbuckets = 1
	Sorting File: B <ab|cd> nbuckets = 1
	Sorting File: C <ia|jb> nbuckets = 1
	Sorting File: D <ij|ab> nbuckets = 1
	Sorting File: E <ai|jk> nbuckets = 1
	Sorting File: F <ia|bc> nbuckets = 1
	Sorting File: F <ai|bc> nbuckets = 1
	Sorting File: A <Ij|Kl> nbuckets = 1
	Sorting File: B <Ab|Cd> nbuckets = 1
	Sorting File: C <Ia|Jb> nbuckets = 1
	Sorting File: C <Ai|Bj> nbuckets = 1
	Sorting File: D <Ij|Ab> nbuckets = 1
	Sorting File: E <Ai|Jk> nbuckets = 1
	Sorting File: E <Ij|Ka> nbuckets = 1
	Sorting File: F <Ia|Bc> nbuckets = 1
	Sorting File: F <aI|bC> nbuckets = 1
	Sorting File: F <Ab|Ci> nbuckets = 1
	Sorting File: F <Ai|Bc> nbuckets = 1
	One-electron energy          =    -63.71473595425587
	Two-electron (AA) energy     =      5.37013793603619
	Two-electron (BB) energy     =      1.64169186741459
	Two-electron (AB) energy     =     11.71722945298482
	Two-electron energy          =     18.72905925643560
	Frozen-core energy (transqt) =      0.00000000000000
	Reference energy             =    -38.91737869225204

*** tstop() called on lawn-143-215-103-161.lawn.gatech.edu at Fri Apr 27 14:12:28 2012
Module time:
	user time   =       0.05 seconds =       0.00 minutes
	system time =       0.07 seconds =       0.00 minutes
	total time  =          1 seconds =       0.02 minutes
Total time:
	user time   =       0.15 seconds =       0.00 minutes
	system time =       0.10 seconds =       0.00 minutes
	total time  =          1 seconds =       0.02 minutes

*** tstart() called on lawn-143-215-103-161.lawn.gatech.edu
*** at Fri Apr 27 14:12:28 2012

			**************************
			*                        *
			*        CCENERGY        *
			*                        *
			**************************

	Nuclear Rep. energy (chkpt)   =    6.068298005568227
	SCF energy          (chkpt)   =  -38.917378692252043
	Reference energy    (file100) =  -38.917378692252043

	Input parameters:
	-----------------
	Wave function   =   CCSD_T
	Reference wfn   =     ROHF changed to UHF for Semicanonical Orbitals
	Memory (Mbytes) =     250.0
	Maxiter         =     50
	Convergence     =     1.0e-10
	Restart         =     No
	DIIS            =     Yes
	AO Basis        =     NONE
	ABCD            =     NEW
	Cache Level     =     2
	Cache Type      =     LRU
	Print Level     =     1
	Num. of threads =     1
	# Amps to Print =     10
	Print MP2 Amps? =     No
	Analyze T2 Amps =     No
	Print Pair Ener =     No
	Local CC        =     No
	SCS-MP2         =     False
	SCSN-MP2        =     False
	SCS-CCSD        =     False

	            Solving CC Amplitude Equations
	            ------------------------------
  Iter             Energy              RMS        T1Diag      D1Diag    New D1Diag
  ----     ---------------------    ---------   ----------  ----------  ----------
     0        -0.095353982794999    0.000e+00    0.000000    0.000000    0.000000
     1        -0.110266544117541    3.737e-02    0.005013    0.000000    0.000000
     2        -0.114891353549893    1.453e-02    0.008836    0.000000    0.000000
     3        -0.115324840713724    5.355e-03    0.010951    0.000000    0.000000
     4        -0.115365473984678    1.590e-03    0.011467    0.000000    0.000000
     5        -0.115363321855150    4.133e-04    0.011469    0.000000    0.000000
     6        -0.115368451643870    1.485e-04    0.011447    0.000000    0.000000
     7        -0.115368914699835    5.418e-05    0.011431    0.000000    0.000000
     8        -0.115368689788159    1.449e-05    0.011427    0.000000    0.000000
     9        -0.115368894189109    3.829e-06    0.011426    0.000000    0.000000
    10        -0.115368896105277    1.230e-06    0.011426    0.000000    0.000000
    11        -0.115368878026785    2.944e-07    0.011426    0.000000    0.000000
    12        -0.115368880336646    7.396e-08    0.011426    0.000000    0.000000
    13        -0.115368882230253    1.929e-08    0.011426    0.000000    0.000000
    14        -0.115368882195722    5.532e-09    0.011426    0.000000    0.000000
    15        -0.115368882081618    1.728e-09    0.011426    0.000000    0.000000
    16        -0.115368882058456    4.932e-10    0.011426    0.000000    0.000000
    17        -0.115368882061355    1.801e-10    0.011426    0.000000    0.000000
    18        -0.115368882060853    7.931e-11    0.011426    0.000000    0.000000

	Iterations converged.


	Largest TIA Amplitudes:
	          1   0        -0.0061202734
	          4  13        -0.0055757737
	          1   2        -0.0053728960
	          1   1         0.0045269857
	          3  10        -0.0044643289
	          4  17         0.0042945253
	          3  11        -0.0042615580
	          4  14         0.0041869572
	          2   1        -0.0034574928
	          2   4        -0.0033930103

	Largest Tia Amplitudes:
	          1   0         0.0201527727
	          1   2         0.0108376355
	          2  17         0.0099808260
	          2  15         0.0066460069
	          2  19         0.0061259571
	          1   6        -0.0055673796
	          1   4        -0.0049145459
	          1   5        -0.0037649758
	          2  20         0.0032881328
	          1   1         0.0032013179

	Largest TIJAB Amplitudes:
	  3   2  10   1        -0.0308037373
	  4   3   8   2         0.0236253277
	  3   2  11   4        -0.0219460050
	  4   3  15  10        -0.0209042515
	  4   3  13  10        -0.0206618935
	  4   2  13   1        -0.0197290061
	  4   2  15   1        -0.0196745286
	  3   2  10   2        -0.0173927201
	  4   2  14   4         0.0154691811
	  4   2  14   2        -0.0154634265

	Largest Tijab Amplitudes:
	  2   1  11   9        -0.0103227605
	  2   1  16   1        -0.0077371141
	  2   1  16   0         0.0077090184
	  2   1  16   3        -0.0072993207
	  2   1  15   0        -0.0068600167
	  2   1  17   0        -0.0067733834
	  2   1  15   1        -0.0066037842
	  2   1  17   4         0.0063165647
	  2   1  15   4         0.0061108829
	  2   1  12   9        -0.0045929582

	Largest TIjAb Amplitudes:
	  4   2  15  17        -0.0339373935
	  4   2  13  15        -0.0325022846
	  3   1   2  11        -0.0318051258
	  4   2  13  17        -0.0297797873
	  4   2   2   2        -0.0291206505
	  4   2  14  16        -0.0279412306
	  3   2  10  17        -0.0258275162
	  2   1   4   0        -0.0257444542
	  4   2  15  15        -0.0257199808
	  3   2  10  15        -0.0255216148

	SCF energy       (chkpt)              =  -38.917378692252043
	Reference energy (file100)            =  -38.917378692252043

	Opposite-spin MP2 correlation energy  =    0.000000000000000
	Same-spin MP2 correlation energy      =    0.000000000000000
	MP2 correlation energy                =   -0.095353982794999
      * MP2 total energy                      =  -39.012732675047040

	Opposite-spin CCSD correlation energy =    0.000000000000000
	Same-spin CCSD correlation energy     =    0.000000000000000
	CCSD correlation energy               =   -0.115368882060853
      * CCSD total energy                     =  -39.032747574312900


*** tstop() called on lawn-143-215-103-161.lawn.gatech.edu at Fri Apr 27 14:12:31 2012
Module time:
	user time   =       0.58 seconds =       0.01 minutes
	system time =       0.59 seconds =       0.01 minutes
	total time  =          3 seconds =       0.05 minutes
Total time:
	user time   =       0.74 seconds =       0.01 minutes
	system time =       0.69 seconds =       0.01 minutes
	total time  =          4 seconds =       0.07 minutes

*** tstart() called on lawn-143-215-103-161.lawn.gatech.edu
*** at Fri Apr 27 14:12:31 2012

			**************************
			*                        *
			*        CCTRIPLES       *
			*                        *
			**************************


	Wave function   =    CCSD_T
	Reference wfn   =      UHF

	Nuclear Rep. energy (chkpt)   =    6.068298005568227
	SCF energy          (chkpt)   =  -38.917378692252043
	Reference energy    (file100) =  -38.917378692252043
	CCSD energy         (file100) =   -0.115368882060853
	Total CCSD energy   (file100) =  -39.032747574312900

	Number of ijk index combinations:
	Spin Case AAA: 125
	Spin Case BBB: 27
	Spin Case AAB: 75
	Spin Case ABB: 45

	Number of abc index combinations:
	Spin Case AAA: 6859
	Spin Case BBB: 9261
	Spin Case AAB: 7581
	Spin Case ABB: 8379

	Computing (T) contributions to CC density...
	AAA (T) energy                =   -0.000061276857454
	BBB (T) energy                =   -0.000000090297556
	AAB (T) energy                =   -0.001395400128189
	ABB (T) energy                =   -0.000381637190625
	(T) energy                    =   -0.001838404473824
      * CCSD(T) total energy          =  -39.034585978786723


*** tstop() called on lawn-143-215-103-161.lawn.gatech.edu at Fri Apr 27 14:13:12 2012
Module time:
	user time   =      20.77 seconds =       0.35 minutes
	system time =      19.96 seconds =       0.33 minutes
	total time  =         41 seconds =       0.68 minutes
Total time:
	user time   =      21.51 seconds =       0.36 minutes
	system time =      20.65 seconds =       0.34 minutes
	total time  =         45 seconds =       0.75 minutes

*** tstart() called on lawn-143-215-103-161.lawn.gatech.edu
*** at Fri Apr 27 14:13:12 2012


			**************************
			*                        *
			*         CCHBAR         *
			*                        *
			**************************


*** tstop() called on lawn-143-215-103-161.lawn.gatech.edu at Fri Apr 27 14:13:12 2012
Module time:
	user time   =       0.04 seconds =       0.00 minutes
	system time =       0.05 seconds =       0.00 minutes
	total time  =          0 seconds =       0.00 minutes
Total time:
	user time   =      21.55 seconds =       0.36 minutes
	system time =      20.70 seconds =       0.34 minutes
	total time  =         45 seconds =       0.75 minutes

*** tstart() called on lawn-143-215-103-161.lawn.gatech.edu
*** at Fri Apr 27 14:13:12 2012


			**************************
			*        CCLAMBDA        *
			**************************


	Nuclear Rep. energy (chkpt)   =    6.068298005568227
	Reference           (chkpt)   = 2
	SCF energy          (chkpt)   =  -38.917378692252043
	Reference energy    (CC_INFO) =  -38.917378692252043

	Input parameters:
	-----------------
	Maxiter       =      50
	Convergence   = 1.0e-10
	Restart       =     No
	Cache Level   =     2
	Model III     =     No
	DIIS          =     Yes
	AO Basis      =     No
	ABCD            =     NEW
	Local CC        =     No
	Paramaters for left-handed eigenvectors:
	    Irr   Root  Ground-State?    EOM energy        R0
	  1   0     0        Yes       0.0000000000   1.0000000000
	Labels for eigenvector 1:
	LIA 0 -1, Lia 0 -1, LIJAB 0 -1, Lijab 0 -1, LIjAb 0 -1, 2LIjAb - LIjbA 0 -1
	Symmetry of left-hand state: B1
	Symmetry of left-hand eigenvector: A1

	          Solving Lambda Equations
	          ------------------------
	Iter     PseudoEnergy or Norm         RMS  
	----     ---------------------     --------
	   0        -0.115336915341812    0.000e+00
	   1        -0.115852268490142    7.114e-03
	   2        -0.115879349456337    1.761e-03
	   3        -0.115907566233835    7.705e-04
	   4        -0.115926471025435    2.336e-04
	   5        -0.115929912451480    7.483e-05
	   6        -0.115929912046620    2.402e-05
	   7        -0.115930180347300    7.536e-06
	   8        -0.115930191572920    2.291e-06
	   9        -0.115930165558973    6.368e-07
	  10        -0.115930166680577    1.853e-07
	  11        -0.115930167954351    5.352e-08
	  12        -0.115930167512912    1.578e-08
	  13        -0.115930167405548    4.862e-09
	  14        -0.115930167454458    1.393e-09
	  15        -0.115930167474332    4.903e-10
	  16        -0.115930167479931    1.879e-10
	  17        -0.115930167481640    7.398e-11

	Largest LIA Amplitudes:
	          4  13        -0.0081006677
	          4  14         0.0067792187
	          1   2        -0.0058228864
	          1   0        -0.0058109452
	          3  11        -0.0053884805
	          1   1         0.0046596295
	          2   4        -0.0045749075
	          4  15        -0.0041512840
	          4  17         0.0041090644
	          3  10        -0.0040686524

	Largest Lia Amplitudes:
	          1   0         0.0197031434
	          1   2         0.0101097927
	          2  17         0.0086093808
	          2  15         0.0060641152
	          2  19         0.0057334585
	          1   6        -0.0052407268
	          1   4        -0.0049884048
	          1   1         0.0041059879
	          1   5        -0.0036317809
	          2  20         0.0027793196

	Largest LIJAB Amplitudes:
	  3   2  10   1        -0.0309366326
	  4   3   8   2         0.0239118124
	  3   2  11   4        -0.0217832692
	  4   3  13  10        -0.0214389430
	  4   3  15  10        -0.0210279501
	  4   2  13   1        -0.0206033866
	  4   2  15   1        -0.0198315301
	  3   2  10   2        -0.0175017057
	  4   2  14   2        -0.0158883036
	  4   2  14   4         0.0155389713

	Largest Lijab Amplitudes:
	  2   1  11   9        -0.0105130896
	  2   1  16   0         0.0083240828
	  2   1  16   1        -0.0081098834
	  2   1  15   0        -0.0080535018
	  2   1  16   3        -0.0074459065
	  2   1  17   0        -0.0073526963
	  2   1  15   1        -0.0072563303
	  2   1  17   4         0.0067098698
	  2   1  15   4         0.0064762828
	  2   1  12   9        -0.0047623424

	Largest LIjAb Amplitudes:
	  4   2  15  17        -0.0342294955
	  4   2  13  15        -0.0340257436
	  3   1   2  11        -0.0329574806
	  4   2  13  17        -0.0302099758
	  4   2   2   2        -0.0295567850
	  4   2  14  16        -0.0280710822
	  3   2  10  15        -0.0264019493
	  2   1   4   0        -0.0263898133
	  4   2  15  15        -0.0261039135
	  3   2  10  17        -0.0260837450

	Iterations converged.

	Overlap <L|e^T> =        0.94771001154

*** tstop() called on lawn-143-215-103-161.lawn.gatech.edu at Fri Apr 27 14:13:12 2012
Module time:
	user time   =       0.20 seconds =       0.00 minutes
	system time =       0.15 seconds =       0.00 minutes
	total time  =          0 seconds =       0.00 minutes
Total time:
	user time   =      21.75 seconds =       0.36 minutes
	system time =      20.85 seconds =       0.35 minutes
	total time  =         45 seconds =       0.75 minutes

*** tstart() called on lawn-143-215-103-161.lawn.gatech.edu
*** at Fri Apr 27 14:13:12 2012


			**************************
			*                        *
			*        CCDENSITY       *
			*                        *
			**************************


	Input parameters:
	-----------------
	Wave function    = CCSD_T
	Reference wfn    =   UHF
	Dertype          = 1
	Tolerance        = 1.0e-14
	Cache Level      = 2
	AO Basis         = No
	OPDM Only        = No
	Relax OPDM       = Yes
	Compute Xi       = No
	Use Zeta         = No
	Xi connected     = Yes

	Nuclear Rep. energy (chkpt)   =    6.068298005568227
	SCF energy          (chkpt)   =  -38.917378692252043
	Reference energy    (file100) =  -38.917378692252043
	CCSD energy         (CC_INFO) =   -0.115368882060853
	(T) energy          (CC_INFO) =   -0.001838404473824
	Total CCSD(T) energy(CC_INFO) =  -39.034585978786723
	Number of States = 1

	Ground?  State     EOM Energy       R0
	  Yes     0 A1    0.0000000000   1.00000000

	Energies re-computed from CC density:
	-------------------------------------
	One-electron energy        =    0.147471230931325
	IJKL energy                =    0.028789189595714
	IJKA energy                =   -0.000965754972687
	IJAB energy                =   -0.228207688581715
	IBJA energy                =   -0.093352971869599
	CIAB energy                =   -0.004477426507035
	ABCD energy                =    0.033536134870994
	Total two-electron energy  =   -0.264678517464329
	CCSD(T) correlation energy =   -0.117207286533004
	Total CCSD(T) energy       =  -39.034585978785046

	Energies re-computed from Fock-adjusted CC density:
	---------------------------------------------------
	One-electron energy        =    0.092646622257760
	IJKL energy                =   -0.357082382496993
	IJKA energy                =    0.009146623338482
	IJAB energy                =   -0.228207688581715
	IBJA energy                =    0.337230830585715
	CIAB energy                =   -0.004477426507035
	ABCD energy                =    0.033536134870994
	Total two-electron energy  =   -0.209853908790553
	CCSD(T) correlation energy =   -0.117207286532793
	Total CCSD(T) energy       =  -39.034585978784840

	Energies re-computed from Mulliken density:
	-------------------------------------------
	One-electron energy        =    0.092646622257760
	IjKl energy                =   -0.197648398436834
	IJKL energy                =   -0.114566813382048
	ijkl energy                =   -0.044867170678111
	IjKa+iJkA energy           =    0.015110923072547
	IJKA energy                =   -0.022938163413272
	ijka energy                =    0.016973863679207
	IjAb energy                =   -0.174107160968281
	IJAB energy                =   -0.041686083960391
	ijab energy                =   -0.005082271748381
	IBJA energy                =    0.110070870442626
	ibja energy                =    0.050337217367973
	iBjA+IbJa energy           =    0.169490570870453
	cIaB+CiAb energy           =   -0.003778487863081
	CIAB energy                =   -0.000457850388227
	ciab energy                =   -0.000241088255727
	AbCd energy                =    0.029344061751255
	ABCD energy                =    0.003855848936377
	abcd energy                =    0.000336224183362
	Total two-electron energy  =   -0.209853908790553
	CCSD(T) correlation energy =   -0.117207286532793
	Total CCSD(T) energy       =  -39.034585978784840

*** tstop() called on lawn-143-215-103-161.lawn.gatech.edu at Fri Apr 27 14:13:13 2012
Module time:
	user time   =       0.10 seconds =       0.00 minutes
	system time =       0.09 seconds =       0.00 minutes
	total time  =          1 seconds =       0.02 minutes
Total time:
	user time   =      21.85 seconds =       0.36 minutes
	system time =      20.94 seconds =       0.35 minutes
	total time  =         46 seconds =       0.77 minutes

*** tstart() called on lawn-143-215-103-161.lawn.gatech.edu
*** at Fri Apr 27 14:13:13 2012

 DERIV: Derivative code.
   by Justin Turney

  Cartesian Displacement SALCs
  By SALC:
  Number of SALCs: 3, nirreps: 1
  Project out translations: False
  Project out rotations: False
	irrep = 0, ncomponent = 1
		0: atom 0, direction z, coef 1.000000
	irrep = 0, ncomponent = 2
		0: atom 1, direction y, coef 0.707107
		1: atom 2, direction y, coef -0.707107
	irrep = 0, ncomponent = 2
		0: atom 1, direction z, coef 0.707107
		1: atom 2, direction z, coef 0.707107

  By Atomic Center:
  Number of atomic centers: 3
   Atomic Center 0:
	x component, size = 0
	y component, size = 0
	z component, size = 1
		0: salc 0, irrep 0, coef 1.000000
   Atomic Center 1:
	x component, size = 0
	y component, size = 1
		0: salc 1, irrep 0, coef 0.707107
	z component, size = 1
		0: salc 2, irrep 0, coef 0.707107
   Atomic Center 2:
	x component, size = 0
	y component, size = 1
		0: salc 1, irrep 0, coef -0.707107
	z component, size = 1
		0: salc 2, irrep 0, coef 0.707107

    Molecular point group: c2v

    Geometry (in Bohr), charge = 0, multiplicity = 3:

       Center              X                  Y                   Z       
    ------------   -----------------  -----------------  -----------------
           C          0.000000000000     0.000000000000    -0.173599104928
           H          0.000000000000    -1.692300907248     1.033507401008
           H          0.000000000000     1.692300907248     1.033507401008

	Presorting MO-basis TPDMs.
	Sorting File: MO TPDM (AA|AA) nbuckets = 1
	Sorting File: MO TPDM (AA|aa) nbuckets = 1
	Sorting File: MO TPDM (aa|aa) nbuckets = 1
	Starting first half-transformation.
	Sorting half-transformed TPDMs.
	First half integral transformation complete.


  -Nuclear Repulsion Energy 1st Derivatives:
     Atom            X                  Y                   Z
    ------   -----------------  -----------------  -----------------
       1        0.000000000000     0.000000000000     1.612694758402
       2        0.000000000000     1.217751421440    -0.806347379201
       3        0.000000000000    -1.217751421440    -0.806347379201


  -One-electron contribution to gradient:
     Atom            X                  Y                   Z
    ------   -----------------  -----------------  -----------------
       1        0.000000000000     0.000000000000    -4.384483263276
       2        0.000000000000    -2.833575654508     2.192241631638
       3        0.000000000000     2.833575654508     2.192241631638


  -Lagrangian contribution to gradient:
     Atom            X                  Y                   Z
    ------   -----------------  -----------------  -----------------
       1        0.000000000000     0.000000000000     0.301464047994
       2        0.000000000000     0.164354723304    -0.150732023997
       3        0.000000000000    -0.164354723304    -0.150732023997


  -Two-electron contribution to gradient:
     Atom            X                  Y                   Z
    ------   -----------------  -----------------  -----------------
       1        0.000000000000     0.000000000000     2.435428852087
       2        0.000000000000     1.467371090172    -1.217714426044
       3        0.000000000000    -1.467371090172    -1.217714426044


  -Total gradient:
     Atom            X                  Y                   Z
    ------   -----------------  -----------------  -----------------
       1        0.000000000000     0.000000000000    -0.034895604792
       2        0.000000000000     0.015901580408     0.017447802396
       3        0.000000000000    -0.015901580408     0.017447802396


*** tstop() called on lawn-143-215-103-161.lawn.gatech.edu at Fri Apr 27 14:13:13 2012
Module time:
	user time   =       0.21 seconds =       0.00 minutes
	system time =       0.03 seconds =       0.00 minutes
	total time  =          0 seconds =       0.00 minutes
Total time:
	user time   =      22.06 seconds =       0.37 minutes
	system time =      20.97 seconds =       0.35 minutes
	total time  =         46 seconds =       0.77 minutes

			----------------------------------
			 OPTKING: for geometry optimizations  
			  - R.A. King,  Bethel University   
			------------------------------------

	Internal coordinates to be generated automatically.
	Detected frag with atoms:  1 2 3
	---Fragment 1 Bond Connectivity---
	 1 : 2 3
	 2 : 1
	 3 : 1

	---Fragment 1 Geometry and Gradient---
	 C           0.0000000000        0.0000000000       -0.1735991049
	 H           0.0000000000       -1.6923009072        1.0335074010
	 H           0.0000000000        1.6923009072        1.0335074010
	             0.0000000000        0.0000000000       -0.0348956048
	             0.0000000000        0.0159015804        0.0174478024
	             0.0000000000       -0.0159015804        0.0174478024

	Previous optimization step data not found.  Starting new optimization.

	---Fragment 1 Intrafragment Coordinates---
	 - Coordinate -           - BOHR/RAD -       - ANG/DEG -
	 R(1,2)           =         2.078699	       1.100000
	 R(1,3)           =         2.078699	       1.100000
	 B(2,1,3)         =         1.902409	     109.000000

	Current energy   :       -39.0345859788

	Generating empirical Hessian (Schlegel '84) for each fragment.
	Going to follow RFO solution 1.
	Projected energy change by RFO approximation:        -0.0068552661

	Back-transformation to cartesian coordinates...
	Successfully converged to displaced geometry.

	---Internal Coordinate Step in ANG or DEG, aJ/ANG or AJ/DEG ---
	 ----------------------------------------------------------------------
	 Coordinate             Previous        Force       Change         New 
	 ----------             --------       ------       ------       ------
	 R(1,2)          =      1.100000     0.023182     0.004248     1.104248
	 R(1,3)          =      1.100000     0.023182     0.004248     1.104248
	 B(2,1,3)        =    109.000000     0.003707    16.070156   125.070156
	 ----------------------------------------------------------------------

  ==> Convergence Check <==

  Measures of convergence in internal coordinates in au.
  Criteria marked as inactive (o), active & met (*), and active & unmet ( ).
  --------------------------------------------------------------------------------------------- ~
   Step     Total Energy     Delta E     MAX Force     RMS Force      MAX Disp      RMS Disp    ~
  --------------------------------------------------------------------------------------------- ~
    Convergence Criteria    1.00e-07 *    1.00e-06 *             o    1.00e-06 *             o  ~
  --------------------------------------------------------------------------------------------- ~
      1     -39.03458598   -3.90e+01      4.87e-02      2.82e-02 o    2.80e-01      1.62e-01 o  ~
  ---------------------------------------------------------------------------------------------

	Writing optimization data to binary file.
	Structure for next step:
	Cartesian Geometry (au)
	    C     0.0000000000   0.0000000000  -0.0104676706
	    H     0.0000000000  -1.8515379427   0.9519416838
	    H     0.0000000000   1.8515379427   0.9519416838
			--------------------------
			 OPTKING Finished Execution 
			--------------------------

*** tstart() called on lawn-143-215-103-161.lawn.gatech.edu
*** at Fri Apr 27 14:13:13 2012


         ---------------------------------------------------------
                                   SCF
            by Justin Turney, Rob Parrish, and Andy Simmonett
                              UHF Reference
                        1 Threads,    250 MiB Core
         ---------------------------------------------------------

  ==> Geometry <==

    Molecular point group: c2v

    Geometry (in Angstrom), charge = 0, multiplicity = 3:

       Center              X                  Y                   Z       
    ------------   -----------------  -----------------  -----------------
           C          0.000000000000     0.000000000000    -0.073242449054
           H          0.000000000000    -0.979791680117     0.436042646629
           H          0.000000000000     0.979791680117     0.436042646629

  Running in c2v symmetry.

  Nuclear repulsion =    6.020681562624755

  Charge       = 0
  Multiplicity = 3
  Electrons    = 8
  Nalpha       = 5
  Nbeta        = 3

  ==> Algorithm <==

  SCF Algorithm Type is PK.
  DIIS enabled.
  MOM disabled.
  Fractional occupation disabled.
  Guess Type is CORE.
  Energy threshold   = 1.00e-10
  Density threshold  = 1.00e-08
  Integral threshold = 0.00e+00

  ==> Primary Basis <==

  Basis Set: CC-PVDZ
    Number of shells: 12
    Number of basis function: 24
    Number of Cartesian functions: 25
    Spherical Harmonics?: true
    Max angular momentum: 2

  ==> Pre-Iterations <==

  Minimum eigenvalue in the overlap matrix is 3.2488292013E-02.
  Using Symmetric Orthogonalization.
  SCF Guess: Core (One-Electron) Hamiltonian.

  Initial UHF energy:   -28.45498225873360

   -------------------------------------------------------
    Irrep   Nso     Nmo     Nalpha   Nbeta   Ndocc  Nsocc
   -------------------------------------------------------
     A1        11      11       3       2       2       1
     A2         2       2       0       0       0       0
     B1         4       4       1       0       0       1
     B2         7       7       1       1       1       0
   -------------------------------------------------------
    Total      24      24       5       3       3       2
   -------------------------------------------------------

  ==> Integral Setup <==

 MINTS: Wrapper to libmints.
   by Justin Turney

   Calculation information:
      Number of atoms:                   3
      Number of AO shells:              12
      Number of SO shells:               9
      Number of primitives:             32
      Number of atomic orbitals:        25
      Number of basis functions:        24

      Number of irreps:                  4
      Number of functions per irrep: [  11    2    4    7 ]

      Overlap, kinetic, potential, dipole, and quadrupole integrals
        stored in file 35.

      Computing two-electron integrals...done
      Computed 11412 non-zero two-electron integrals.
        Stored in file 33.

  ==> Iterations <==

                        Total Energy        Delta E     Density RMS

   @UHF iter   1:   -35.18092370828096   -6.72594e+00   0.00000e+00 
   @UHF iter   2:   -38.11226406614626   -2.93134e+00   2.48319e-01 DIIS
   @UHF iter   3:   -38.90857716439356   -7.96313e-01   1.46423e-01 DIIS
   @UHF iter   4:   -38.92346398501054   -1.48868e-02   1.47544e-02 DIIS
   @UHF iter   5:   -38.92526660282109   -1.80262e-03   4.65913e-03 DIIS
   @UHF iter   6:   -38.92552874458161   -2.62142e-04   1.44860e-03 DIIS
   @UHF iter   7:   -38.92554990435219   -2.11598e-05   2.79743e-04 DIIS
   @UHF iter   8:   -38.92555137987504   -1.47552e-06   3.07479e-05 DIIS
   @UHF iter   9:   -38.92555152078257   -1.40908e-07   1.27816e-05 DIIS
   @UHF iter  10:   -38.92555154082782   -2.00452e-08   7.48564e-06 DIIS
   @UHF iter  11:   -38.92555154160055   -7.72729e-10   1.29087e-06 DIIS
   @UHF iter  12:   -38.92555154161951   -1.89573e-11   2.65867e-07 DIIS
   @UHF iter  13:   -38.92555154162042   -9.16600e-13   6.20209e-08 DIIS
   @UHF iter  14:   -38.92555154162048   -5.68434e-14   1.17791e-08 DIIS

  ==> Post-Iterations <==

   @Spin Contamination Metric:   1.415033654E-02
   @S^2 Expected:                2.000000000E+00
   @S^2 Observed:                2.014150337E+00
   @S   Expected:                1.000000000E+00
   @S   Observed:                1.000000000E+00

	Orbital Energies (a.u.)
	-----------------------

	Alpha Occupied:                                                       

	   1A1   -11.275466     2A1    -0.942054     1B2    -0.596521  
	   3A1    -0.462764     1B1    -0.409756  

	Alpha Virtual:                                                        

	   4A1     0.196753     2B2     0.254494     5A1     0.614535  
	   3B2     0.636760     2B1     0.653329     6A1     0.682705  
	   4B2     0.872040     7A1     0.992931     1A2     1.161986  
	   8A1     1.253800     3B1     1.275874     5B2     1.599157  
	   9A1     1.712960     4B1     1.907042     6B2     2.008033  
	   2A2     2.115518    10A1     2.258396     7B2     2.714374  
	  11A1     2.777557  

	Beta Occupied:                                                        

	   1A1   -11.225915     2A1    -0.770280     1B2    -0.561668  

	Beta Virtual:                                                         

	   3A1     0.123594     1B1     0.159219     4A1     0.221070  
	   2B2     0.278449     5A1     0.668587     3B2     0.673994  
	   6A1     0.823207     2B1     0.823904     4B2     0.919130  
	   7A1     1.051389     1A2     1.234848     8A1     1.381600  
	   3B1     1.420563     5B2     1.610900     9A1     1.787510  
	   4B1     1.942495     6B2     2.062927     2A2     2.164358  
	  10A1     2.284702     7B2     2.735675    11A1     2.803571  

	Final Occupation by Irrep:
	         A1    A2    B1    B2 
	DOCC [     2,    0,    0,    1 ]
	SOCC [     1,    0,    1,    0 ]

  Energy converged.

  @UHF Final Energy:   -38.92555154162048

   => Energetics <=

    Nuclear Repulsion Energy =          6.0206815626247545
    One-Electron Energy =             -63.6480415123023633
    Two-Electron Energy =              18.7018084080571292
    DFT Functional Energy =             0.0000000000000000
    Empirical Dispersion Energy =       0.0000000000000000
    Total Energy =                    -38.9255515416204787

  ==> Properties <==

  Nuclear Dipole Moment: (a.u.)
     X:     0.0000      Y:     0.0000      Z:     0.8176

  Electronic Dipole Moment: (a.u.)
     X:     0.0000      Y:     0.0000      Z:    -0.5836

  Dipole Moment: (a.u.)
     X:     0.0000      Y:     0.0000      Z:     0.2339     Total:     0.2339

  Dipole Moment: (Debye)
     X:     0.0000      Y:     0.0000      Z:     0.5946     Total:     0.5946


  Saving occupied orbitals to File 180.

*** tstop() called on lawn-143-215-103-161.lawn.gatech.edu at Fri Apr 27 14:13:13 2012
Module time:
	user time   =       0.09 seconds =       0.00 minutes
	system time =       0.01 seconds =       0.00 minutes
	total time  =          0 seconds =       0.00 minutes
Total time:
	user time   =      22.15 seconds =       0.37 minutes
	system time =      20.99 seconds =       0.35 minutes
	total time  =         46 seconds =       0.77 minutes

*** tstart() called on lawn-143-215-103-161.lawn.gatech.edu
*** at Fri Apr 27 14:13:13 2012


	**************************************************
	* TRANSQT2: Program to transform integrals from  *
	*           the SO basis to the MO basis.        *
	*                                                *
	*            Daniel, David, & Justin             *
	**************************************************


	Input parameters:
	-----------------
	Wave function   =	CCSD_T
	Backtransform   =	No
	Print Level     =	1
	Print TEIs      =	No
	Reference wfn   =	UHF
	Derivative      =	First
	Delete TEI File =	Yes
	Memory (Mbytes) =	250.0
	Cache Level     =	2
	Cache Type      =	LRU
	Chkpt Parameters:
	--------------------
	Number of irreps     = 4
	Number of SOs        = 24
	Number of MOs        = 24
	Number of active MOs = 24

	Label	# SOs	# FZDC	# DOCC	# SOCC	# VIRT	# FZVR
	-----	-----	------	------	------	------	------
	 A1	   11	    0	    2	    1	    8	    0
	 A2	   2	    0	    0	    0	    2	    0
	 B1	   4	    0	    0	    1	    3	    0
	 B2	   7	    0	    1	    0	    6	    0

	Nuclear Rep. energy (chkpt) =      6.02068156262475
	SCF energy          (chkpt) =    -38.92555154162048

	Presorting SO-basis two-electron integrals.
	Sorting File: SO Ints (pq,rs) nbuckets = 1
	Frozen-core energy =    0.000000000000000
	Starting AA/AB first half-transformation.
	Sorting AA/AB half-transformed integrals.
	Starting AA second half-transformation.
	Starting AB second half-transformation.
	Starting BB first half-transformation.
	Sorting BB half-transformed integrals.
	Starting BB second half-transformation.
	Two-electron integral transformation complete.

*** tstop() called on lawn-143-215-103-161.lawn.gatech.edu at Fri Apr 27 14:13:13 2012
Module time:
	user time   =       0.02 seconds =       0.00 minutes
	system time =       0.01 seconds =       0.00 minutes
	total time  =          0 seconds =       0.00 minutes
Total time:
	user time   =      22.17 seconds =       0.37 minutes
	system time =      21.00 seconds =       0.35 minutes
	total time  =         46 seconds =       0.77 minutes

*** tstart() called on lawn-143-215-103-161.lawn.gatech.edu
*** at Fri Apr 27 14:13:13 2012


			**************************
			*                        *
			*         CCSORT         *
			*                        *
			**************************


	Input parameters:
	-----------------
	Wave function   =	CCSD_T
	Reference wfn   =	UHF
	Derivative      =	First
	Memory (Mbytes) =	250.0
	AO Basis        =	NONE
	Make (ab|cd)    =	True
	Make unpacked (ab|cd) =	True
	Cache Level     =	2
	Cache Type      =	LRU
	Local CC        =     No


	Chkpt Parameters:
	--------------------
	Number of irreps     = 4
	Number of MOs        = 24
	Number of active MOs = 24

	Label	# MOs	# FZDC	# DOCC	# SOCC	# VIRT	# FZVR
	-----	-----	------	------	------	------	------
	 A1	   11	    0	    2	    1	    8	    0
	 A2	   2	    0	    0	    0	    2	    0
	 B1	   4	    0	    0	    1	    3	    0
	 B2	   7	    0	    1	    0	    6	    0

	Nuclear Rep. energy (chkpt) =      6.02068156262475
	SCF energy          (chkpt) =    -38.92555154162048

	Size of irrep 0 of <AB|CD> integrals:      0.002 (MW) /      0.018 (MB)
	Size of irrep 1 of <AB|CD> integrals:      0.001 (MW) /      0.009 (MB)
	Size of irrep 2 of <AB|CD> integrals:      0.001 (MW) /      0.010 (MB)
	Size of irrep 3 of <AB|CD> integrals:      0.003 (MW) /      0.023 (MB)
	Total:                                     0.008 (MW) /      0.061 (MB)

	Size of irrep 0 of <ab|cd> integrals:      0.003 (MW) /      0.027 (MB)
	Size of irrep 1 of <ab|cd> integrals:      0.002 (MW) /      0.014 (MB)
	Size of irrep 2 of <ab|cd> integrals:      0.002 (MW) /      0.018 (MB)
	Size of irrep 3 of <ab|cd> integrals:      0.004 (MW) /      0.031 (MB)
	Total:                                     0.011 (MW) /      0.090 (MB)

	Size of irrep 0 of <Ab|Cd> integrals:      0.015 (MW) /      0.123 (MB)
	Size of irrep 1 of <Ab|Cd> integrals:      0.006 (MW) /      0.046 (MB)
	Size of irrep 2 of <Ab|Cd> integrals:      0.007 (MW) /      0.055 (MB)
	Size of irrep 3 of <Ab|Cd> integrals:      0.013 (MW) /      0.108 (MB)
	Total:                                     0.041 (MW) /      0.332 (MB)

	Size of irrep 0 of <IA|BC> integrals:      0.004 (MW) /      0.030 (MB)
	Size of irrep 1 of <IA|BC> integrals:      0.001 (MW) /      0.008 (MB)
	Size of irrep 2 of <IA|BC> integrals:      0.001 (MW) /      0.011 (MB)
	Size of irrep 3 of <IA|BC> integrals:      0.003 (MW) /      0.024 (MB)
	Total:                                     0.009 (MW) /      0.073 (MB)

	Size of irrep 0 of <ia|bc> integrals:      0.003 (MW) /      0.026 (MB)
	Size of irrep 1 of <ia|bc> integrals:      0.001 (MW) /      0.005 (MB)
	Size of irrep 2 of <ia|bc> integrals:      0.001 (MW) /      0.008 (MB)
	Size of irrep 3 of <ia|bc> integrals:      0.003 (MW) /      0.021 (MB)
	Total:                                     0.008 (MW) /      0.060 (MB)

	Size of irrep 0 of <Ia|Bc> integrals:      0.005 (MW) /      0.037 (MB)
	Size of irrep 1 of <Ia|Bc> integrals:      0.001 (MW) /      0.010 (MB)
	Size of irrep 2 of <Ia|Bc> integrals:      0.002 (MW) /      0.015 (MB)
	Size of irrep 3 of <Ia|Bc> integrals:      0.003 (MW) /      0.027 (MB)
	Total:                                     0.011 (MW) /      0.089 (MB)

	Size of irrep 0 of <iA|bC> integrals:      0.003 (MW) /      0.022 (MB)
	Size of irrep 1 of <iA|bC> integrals:      0.001 (MW) /      0.004 (MB)
	Size of irrep 2 of <iA|bC> integrals:      0.001 (MW) /      0.005 (MB)
	Size of irrep 3 of <iA|bC> integrals:      0.002 (MW) /      0.019 (MB)
	Total:                                     0.006 (MW) /      0.050 (MB)

	Size of irrep 0 of tIjAb amplitudes:       0.001 (MW) /      0.007 (MB)
	Size of irrep 1 of tIjAb amplitudes:       0.000 (MW) /      0.001 (MB)
	Size of irrep 2 of tIjAb amplitudes:       0.000 (MW) /      0.001 (MB)
	Size of irrep 3 of tIjAb amplitudes:       0.001 (MW) /      0.005 (MB)
	Total:                                     0.002 (MW) /      0.014 (MB)


	Sorting File: A <IJ|KL> nbuckets = 1
	Sorting File: B <AB|CD> nbuckets = 1
	Sorting File: C <IA|JB> nbuckets = 1
	Sorting File: D <IJ|AB> nbuckets = 1
	Sorting File: E <AI|JK> nbuckets = 1
	Sorting File: F <IA|BC> nbuckets = 1
	Sorting File: F <AI|BC> nbuckets = 1
	Sorting File: A <ij|kl> nbuckets = 1
	Sorting File: B <ab|cd> nbuckets = 1
	Sorting File: C <ia|jb> nbuckets = 1
	Sorting File: D <ij|ab> nbuckets = 1
	Sorting File: E <ai|jk> nbuckets = 1
	Sorting File: F <ia|bc> nbuckets = 1
	Sorting File: F <ai|bc> nbuckets = 1
	Sorting File: A <Ij|Kl> nbuckets = 1
	Sorting File: B <Ab|Cd> nbuckets = 1
	Sorting File: C <Ia|Jb> nbuckets = 1
	Sorting File: C <Ai|Bj> nbuckets = 1
	Sorting File: D <Ij|Ab> nbuckets = 1
	Sorting File: E <Ai|Jk> nbuckets = 1
	Sorting File: E <Ij|Ka> nbuckets = 1
	Sorting File: F <Ia|Bc> nbuckets = 1
	Sorting File: F <aI|bC> nbuckets = 1
	Sorting File: F <Ab|Ci> nbuckets = 1
	Sorting File: F <Ai|Bc> nbuckets = 1
	One-electron energy          =    -63.64804152162633
	Two-electron (AA) energy     =      5.36536522817245
	Two-electron (BB) energy     =      1.63143948046833
	Two-electron (AB) energy     =     11.70500370874032
	Two-electron energy          =     18.70180841738109
	Frozen-core energy (transqt) =      0.00000000000000
	Reference energy             =    -38.92555154162048

*** tstop() called on lawn-143-215-103-161.lawn.gatech.edu at Fri Apr 27 14:13:14 2012
Module time:
	user time   =       0.06 seconds =       0.00 minutes
	system time =       0.08 seconds =       0.00 minutes
	total time  =          1 seconds =       0.02 minutes
Total time:
	user time   =      22.23 seconds =       0.37 minutes
	system time =      21.08 seconds =       0.35 minutes
	total time  =         47 seconds =       0.78 minutes

*** tstart() called on lawn-143-215-103-161.lawn.gatech.edu
*** at Fri Apr 27 14:13:14 2012

			**************************
			*                        *
			*        CCENERGY        *
			*                        *
			**************************

	Nuclear Rep. energy (chkpt)   =    6.020681562624755
	SCF energy          (chkpt)   =  -38.925551541620479
	Reference energy    (file100) =  -38.925551541620479

	Input parameters:
	-----------------
	Wave function   =   CCSD_T
	Reference wfn   =     ROHF changed to UHF for Semicanonical Orbitals
	Memory (Mbytes) =     250.0
	Maxiter         =     50
	Convergence     =     1.0e-10
	Restart         =     No
	DIIS            =     Yes
	AO Basis        =     NONE
	ABCD            =     NEW
	Cache Level     =     2
	Cache Type      =     LRU
	Print Level     =     1
	Num. of threads =     1
	# Amps to Print =     10
	Print MP2 Amps? =     No
	Analyze T2 Amps =     No
	Print Pair Ener =     No
	Local CC        =     No
	SCS-MP2         =     False
	SCSN-MP2        =     False
	SCS-CCSD        =     False

	            Solving CC Amplitude Equations
	            ------------------------------
  Iter             Energy              RMS        T1Diag      D1Diag    New D1Diag
  ----     ---------------------    ---------   ----------  ----------  ----------
     0        -0.095326615862467    7.931e-11    0.000000    0.000000    0.000000
     1        -0.110356905556280    3.754e-02    0.004980    0.000000    0.000000
     2        -0.115039457075030    1.456e-02    0.008763    0.000000    0.000000
     3        -0.115474065368701    5.267e-03    0.010762    0.000000    0.000000
     4        -0.115515662255680    1.528e-03    0.011201    0.000000    0.000000
     5        -0.115514377143643    4.191e-04    0.011205    0.000000    0.000000
     6        -0.115518777674274    1.597e-04    0.011184    0.000000    0.000000
     7        -0.115519626272753    5.419e-05    0.011172    0.000000    0.000000
     8        -0.115519274985472    1.267e-05    0.011170    0.000000    0.000000
     9        -0.115519465331588    3.336e-06    0.011169    0.000000    0.000000
    10        -0.115519470896522    1.089e-06    0.011169    0.000000    0.000000
    11        -0.115519455057759    2.667e-07    0.011169    0.000000    0.000000
    12        -0.115519454001839    6.277e-08    0.011169    0.000000    0.000000
    13        -0.115519455949588    1.714e-08    0.011169    0.000000    0.000000
    14        -0.115519456139238    3.581e-09    0.011169    0.000000    0.000000
    15        -0.115519456126269    1.136e-09    0.011169    0.000000    0.000000
    16        -0.115519456107870    3.990e-10    0.011169    0.000000    0.000000
    17        -0.115519456104811    1.631e-10    0.011169    0.000000    0.000000
    18        -0.115519456104676    6.973e-11    0.011169    0.000000    0.000000

	Iterations converged.


	Largest TIA Amplitudes:
	          1   0        -0.0081988213
	          1   1        -0.0076975348
	          4  13        -0.0047919770
	          3  10        -0.0040023364
	          4  16         0.0038834251
	          3  11        -0.0036578507
	          4  14         0.0035921836
	          1   2        -0.0034913103
	          4  17         0.0031931873
	          2   5        -0.0031621942

	Largest Tia Amplitudes:
	          1   0         0.0179793916
	          1   2         0.0118409658
	          2  17         0.0081878713
	          1   4        -0.0063443335
	          1   1         0.0062406193
	          1   6        -0.0056847055
	          2  19         0.0049155390
	          2  15         0.0042458701
	          2  20         0.0035976351
	          1   7        -0.0030303821

	Largest TIJAB Amplitudes:
	  3   2  10   2        -0.0301855601
	  3   2  11   4        -0.0241396666
	  4   3  15  10        -0.0207518827
	  4   3  13  10        -0.0207342504
	  3   2  10   1         0.0205527770
	  4   2  13   1         0.0194884918
	  4   2  15   1         0.0187940695
	  4   3   8   1         0.0187514661
	  4   3   8   2         0.0172524131
	  4   2  14   2        -0.0171760325

	Largest Tijab Amplitudes:
	  2   1  11   9        -0.0102041210
	  2   1  16   0         0.0071487639
	  2   1  16   1        -0.0069146374
	  2   1  15   1        -0.0068936335
	  2   1  17   0        -0.0065617046
	  2   1  17   4         0.0062528891
	  2   1  15   4         0.0061797410
	  2   1  15   0        -0.0060139365
	  2   1  16   3        -0.0052831846
	  2   1  12   9        -0.0044471270

	Largest TIjAb Amplitudes:
	  4   2  15  17        -0.0343053189
	  4   2   1   2        -0.0300758704
	  4   2  13  15        -0.0285070929
	  3   1   0  11        -0.0274414945
	  4   2   2   2        -0.0269296287
	  4   2  13  17        -0.0267730330
	  2   1   4   0        -0.0266961772
	  2   1  11  11         0.0259785878
	  3   2  10  17        -0.0256464974
	  3   1  11   0        -0.0254566566

	SCF energy       (chkpt)              =  -38.925551541620479
	Reference energy (file100)            =  -38.925551541620479

	Opposite-spin MP2 correlation energy  =    0.000000000000000
	Same-spin MP2 correlation energy      =    0.000000000000000
	MP2 correlation energy                =   -0.095326615862467
      * MP2 total energy                      =  -39.020878157482947

	Opposite-spin CCSD correlation energy =    0.000000000000000
	Same-spin CCSD correlation energy     =    0.000000000000000
	CCSD correlation energy               =   -0.115519456104676
      * CCSD total energy                     =  -39.041070997725157


*** tstop() called on lawn-143-215-103-161.lawn.gatech.edu at Fri Apr 27 14:13:19 2012
Module time:
	user time   =       0.62 seconds =       0.01 minutes
	system time =       0.68 seconds =       0.01 minutes
	total time  =          5 seconds =       0.08 minutes
Total time:
	user time   =      22.86 seconds =       0.38 minutes
	system time =      21.77 seconds =       0.36 minutes
	total time  =         52 seconds =       0.87 minutes

*** tstart() called on lawn-143-215-103-161.lawn.gatech.edu
*** at Fri Apr 27 14:13:19 2012

			**************************
			*                        *
			*        CCTRIPLES       *
			*                        *
			**************************


	Wave function   =    CCSD_T
	Reference wfn   =      UHF

	Nuclear Rep. energy (chkpt)   =    6.020681562624755
	SCF energy          (chkpt)   =  -38.925551541620479
	Reference energy    (file100) =  -38.925551541620479
	CCSD energy         (file100) =   -0.115519456104676
	Total CCSD energy   (file100) =  -39.041070997725157

	Number of ijk index combinations:
	Spin Case AAA: 125
	Spin Case BBB: 27
	Spin Case AAB: 75
	Spin Case ABB: 45

	Number of abc index combinations:
	Spin Case AAA: 6859
	Spin Case BBB: 9261
	Spin Case AAB: 7581
	Spin Case ABB: 8379

	Computing (T) contributions to CC density...
	AAA (T) energy                =   -0.000062881974165
	BBB (T) energy                =   -0.000000076558339
	AAB (T) energy                =   -0.001387866811081
	ABB (T) energy                =   -0.000365359393273
	(T) energy                    =   -0.001816184736858
      * CCSD(T) total energy          =  -39.042887182462010


*** tstop() called on lawn-143-215-103-161.lawn.gatech.edu at Fri Apr 27 14:14:03 2012
Module time:
	user time   =      21.37 seconds =       0.36 minutes
	system time =      20.29 seconds =       0.34 minutes
	total time  =         44 seconds =       0.73 minutes
Total time:
	user time   =      44.23 seconds =       0.74 minutes
	system time =      42.06 seconds =       0.70 minutes
	total time  =         96 seconds =       1.60 minutes

*** tstart() called on lawn-143-215-103-161.lawn.gatech.edu
*** at Fri Apr 27 14:14:03 2012


			**************************
			*                        *
			*         CCHBAR         *
			*                        *
			**************************


*** tstop() called on lawn-143-215-103-161.lawn.gatech.edu at Fri Apr 27 14:14:03 2012
Module time:
	user time   =       0.05 seconds =       0.00 minutes
	system time =       0.05 seconds =       0.00 minutes
	total time  =          0 seconds =       0.00 minutes
Total time:
	user time   =      44.28 seconds =       0.74 minutes
	system time =      42.11 seconds =       0.70 minutes
	total time  =         96 seconds =       1.60 minutes

*** tstart() called on lawn-143-215-103-161.lawn.gatech.edu
*** at Fri Apr 27 14:14:03 2012


			**************************
			*        CCLAMBDA        *
			**************************


	Nuclear Rep. energy (chkpt)   =    6.020681562624755
	Reference           (chkpt)   = 2
	SCF energy          (chkpt)   =  -38.925551541620479
	Reference energy    (CC_INFO) =  -38.925551541620479

	Input parameters:
	-----------------
	Maxiter       =      50
	Convergence   = 1.0e-10
	Restart       =     No
	Cache Level   =     2
	Model III     =     No
	DIIS          =     Yes
	AO Basis      =     No
	ABCD            =     NEW
	Local CC        =     No
	Paramaters for left-handed eigenvectors:
	    Irr   Root  Ground-State?    EOM energy        R0
	  1   0     0        Yes       0.0000000000   1.0000000000
	Labels for eigenvector 1:
	LIA 0 -1, Lia 0 -1, LIJAB 0 -1, Lijab 0 -1, LIjAb 0 -1, 2LIjAb - LIjbA 0 -1
	Symmetry of left-hand state: B1
	Symmetry of left-hand eigenvector: A1

	          Solving Lambda Equations
	          ------------------------
	Iter     PseudoEnergy or Norm         RMS  
	----     ---------------------     --------
	   0        -0.115486248424768    7.398e-11
	   1        -0.115953152336595    6.527e-03
	   2        -0.115978128485328    1.681e-03
	   3        -0.116004648066288    7.160e-04
	   4        -0.116022540689180    2.077e-04
	   5        -0.116025689536308    6.443e-05
	   6        -0.116025696920226    2.138e-05
	   7        -0.116025908605633    7.048e-06
	   8        -0.116025951142249    2.262e-06
	   9        -0.116025933123796    5.901e-07
	  10        -0.116025934779790    1.676e-07
	  11        -0.116025937423597    4.980e-08
	  12        -0.116025937464336    1.367e-08
	  13        -0.116025937403996    4.143e-09
	  14        -0.116025937431276    1.148e-09
	  15        -0.116025937440123    2.915e-10
	  16        -0.116025937440659    8.599e-11

	Largest LIA Amplitudes:
	          1   1        -0.0079600543
	          1   0        -0.0079000497
	          4  13        -0.0065960396
	          4  14         0.0056422713
	          4  15        -0.0049493815
	          3  11        -0.0045427009
	          2   4        -0.0040626261
	          4  16         0.0040530169
	          1   2        -0.0038507784
	          2   5        -0.0035734038

	Largest Lia Amplitudes:
	          1   0         0.0176542856
	          1   2         0.0109944587
	          1   1         0.0070321021
	          2  17         0.0069141358
	          1   4        -0.0063781096
	          1   6        -0.0053619349
	          2  19         0.0046388672
	          2  15         0.0037247561
	          2  20         0.0030801459
	          1   7        -0.0028643468

	Largest LIJAB Amplitudes:
	  3   2  10   2        -0.0302932297
	  3   2  11   4        -0.0238695893
	  4   3  13  10        -0.0215198528
	  4   3  15  10        -0.0209375911
	  3   2  10   1         0.0205886309
	  4   2  13   1         0.0204604036
	  4   3   8   1         0.0190496556
	  4   2  15   1         0.0189410437
	  4   2  14   2        -0.0174972203
	  4   3   8   2         0.0174595059

	Largest Lijab Amplitudes:
	  2   1  11   9        -0.0103889740
	  2   1  16   0         0.0076795173
	  2   1  15   1        -0.0076180046
	  2   1  16   1        -0.0072192147
	  2   1  17   0        -0.0070992099
	  2   1  15   0        -0.0070088173
	  2   1  17   4         0.0066525106
	  2   1  15   4         0.0065746179
	  2   1  16   3        -0.0054267988
	  2   1  12   9        -0.0046194655

	Largest LIjAb Amplitudes:
	  4   2  15  17        -0.0345336232
	  4   2   1   2        -0.0306431925
	  4   2  13  15        -0.0297917272
	  3   1   0  11        -0.0295894868
	  4   2   2   2        -0.0273275313
	  2   1   4   0        -0.0272049106
	  4   2  13  17        -0.0270960977
	  3   2  10  15        -0.0261976609
	  2   1  11  11         0.0261552117
	  3   1  11   0        -0.0259525655

	Iterations converged.

	Overlap <L|e^T> =        0.94766666559

*** tstop() called on lawn-143-215-103-161.lawn.gatech.edu at Fri Apr 27 14:14:04 2012
Module time:
	user time   =       0.19 seconds =       0.00 minutes
	system time =       0.14 seconds =       0.00 minutes
	total time  =          1 seconds =       0.02 minutes
Total time:
	user time   =      44.47 seconds =       0.74 minutes
	system time =      42.25 seconds =       0.70 minutes
	total time  =         97 seconds =       1.62 minutes

*** tstart() called on lawn-143-215-103-161.lawn.gatech.edu
*** at Fri Apr 27 14:14:04 2012


			**************************
			*                        *
			*        CCDENSITY       *
			*                        *
			**************************


	Input parameters:
	-----------------
	Wave function    = CCSD_T
	Reference wfn    =   UHF
	Dertype          = 1
	Tolerance        = 1.0e-14
	Cache Level      = 2
	AO Basis         = No
	OPDM Only        = No
	Relax OPDM       = Yes
	Compute Xi       = No
	Use Zeta         = No
	Xi connected     = Yes

	Nuclear Rep. energy (chkpt)   =    6.020681562624755
	SCF energy          (chkpt)   =  -38.925551541620479
	Reference energy    (file100) =  -38.925551541620479
	CCSD energy         (CC_INFO) =   -0.115519456104676
	(T) energy          (CC_INFO) =   -0.001816184736858
	Total CCSD(T) energy(CC_INFO) =  -39.042887182462017
	Number of States = 1

	Ground?  State     EOM Energy       R0
	  Yes     0 A1    0.0000000000   1.00000000

	Energies re-computed from CC density:
	-------------------------------------
	One-electron energy        =    0.147802511280063
	IJKL energy                =    0.028780499002035
	IJKA energy                =   -0.001022369264561
	IJAB energy                =   -0.228442214252108
	IBJA energy                =   -0.093627161234871
	CIAB energy                =   -0.004380433388882
	ABCD energy                =    0.033553527018432
	Total two-electron energy  =   -0.265138152119956
	CCSD(T) correlation energy =   -0.117335640839893
	Total CCSD(T) energy       =  -39.042887182460369

	Energies re-computed from Fock-adjusted CC density:
	---------------------------------------------------
	One-electron energy        =    0.092884039471185
	IJKL energy                =   -0.356666205270089
	IJKA energy                =    0.009274130979761
	IJAB energy                =   -0.228442214252108
	IBJA energy                =    0.336441514602200
	CIAB energy                =   -0.004380433388882
	ABCD energy                =    0.033553527018432
	Total two-electron energy  =   -0.210219680310685
	CCSD(T) correlation energy =   -0.117335640839500
	Total CCSD(T) energy       =  -39.042887182459978

	Energies re-computed from Mulliken density:
	-------------------------------------------
	One-electron energy        =    0.092884039471185
	IjKl energy                =   -0.197318496815196
	IJKL energy                =   -0.115094627584700
	ijkl energy                =   -0.044253080870192
	IjKa+iJkA energy           =    0.014648090904699
	IJKA energy                =   -0.022784682381864
	ijka energy                =    0.017410722456925
	IjAb energy                =   -0.174303392595784
	IJAB energy                =   -0.042134015486630
	ijab energy                =   -0.004803092423501
	IBJA energy                =    0.110158797464207
	ibja energy                =    0.050072495679769
	iBjA+IbJa energy           =    0.169008507712033
	cIaB+CiAb energy           =   -0.003687871027311
	CIAB energy                =   -0.000439473151151
	ciab energy                =   -0.000253089210420
	AbCd energy                =    0.029331646908100
	ABCD energy                =    0.003916789149609
	abcd energy                =    0.000305090960724
	Total two-electron energy  =   -0.210219680310685
	CCSD(T) correlation energy =   -0.117335640839500
	Total CCSD(T) energy       =  -39.042887182459978

*** tstop() called on lawn-143-215-103-161.lawn.gatech.edu at Fri Apr 27 14:14:04 2012
Module time:
	user time   =       0.09 seconds =       0.00 minutes
	system time =       0.09 seconds =       0.00 minutes
	total time  =          0 seconds =       0.00 minutes
Total time:
	user time   =      44.56 seconds =       0.74 minutes
	system time =      42.34 seconds =       0.71 minutes
	total time  =         97 seconds =       1.62 minutes

*** tstart() called on lawn-143-215-103-161.lawn.gatech.edu
*** at Fri Apr 27 14:14:04 2012

 DERIV: Derivative code.
   by Justin Turney

  Cartesian Displacement SALCs
  By SALC:
  Number of SALCs: 3, nirreps: 1
  Project out translations: False
  Project out rotations: False
	irrep = 0, ncomponent = 1
		0: atom 0, direction z, coef 1.000000
	irrep = 0, ncomponent = 2
		0: atom 1, direction y, coef 0.707107
		1: atom 2, direction y, coef -0.707107
	irrep = 0, ncomponent = 2
		0: atom 1, direction z, coef 0.707107
		1: atom 2, direction z, coef 0.707107

  By Atomic Center:
  Number of atomic centers: 3
   Atomic Center 0:
	x component, size = 0
	y component, size = 0
	z component, size = 1
		0: salc 0, irrep 0, coef 1.000000
   Atomic Center 1:
	x component, size = 0
	y component, size = 1
		0: salc 1, irrep 0, coef 0.707107
	z component, size = 1
		0: salc 2, irrep 0, coef 0.707107
   Atomic Center 2:
	x component, size = 0
	y component, size = 1
		0: salc 1, irrep 0, coef -0.707107
	z component, size = 1
		0: salc 2, irrep 0, coef 0.707107

    Molecular point group: c2v

    Geometry (in Bohr), charge = 0, multiplicity = 3:

       Center              X                  Y                   Z       
    ------------   -----------------  -----------------  -----------------
           C          0.000000000000     0.000000000000    -0.138408170013
           H          0.000000000000    -1.851537942702     0.824001184387
           H          0.000000000000     1.851537942702     0.824001184387

	Presorting MO-basis TPDMs.
	Sorting File: MO TPDM (AA|AA) nbuckets = 1
	Sorting File: MO TPDM (AA|aa) nbuckets = 1
	Sorting File: MO TPDM (aa|aa) nbuckets = 1
	Starting first half-transformation.
	Sorting half-transformed TPDMs.
	First half integral transformation complete.


  -Nuclear Repulsion Energy 1st Derivatives:
     Atom            X                  Y                   Z
    ------   -----------------  -----------------  -----------------
       1        0.000000000000     0.000000000000     1.270998188464
       2        0.000000000000     1.295534081689    -0.635499094232
       3        0.000000000000    -1.295534081689    -0.635499094232


  -One-electron contribution to gradient:
     Atom            X                  Y                   Z
    ------   -----------------  -----------------  -----------------
       1        0.000000000000     0.000000000000    -3.299252630775
       2        0.000000000000    -3.199188456477     1.649626315388
       3        0.000000000000     3.199188456477     1.649626315388


  -Lagrangian contribution to gradient:
     Atom            X                  Y                   Z
    ------   -----------------  -----------------  -----------------
       1        0.000000000000     0.000000000000     0.222392543301
       2        0.000000000000     0.193294580807    -0.111196271650
       3        0.000000000000    -0.193294580807    -0.111196271650


  -Two-electron contribution to gradient:
     Atom            X                  Y                   Z
    ------   -----------------  -----------------  -----------------
       1        0.000000000000     0.000000000000     1.791131283207
       2        0.000000000000     1.708890758595    -0.895565641603
       3        0.000000000000    -1.708890758595    -0.895565641603


  -Total gradient:
     Atom            X                  Y                   Z
    ------   -----------------  -----------------  -----------------
       1        0.000000000000     0.000000000000    -0.014730615804
       2        0.000000000000    -0.001469035385     0.007365307902
       3        0.000000000000     0.001469035385     0.007365307902


*** tstop() called on lawn-143-215-103-161.lawn.gatech.edu at Fri Apr 27 14:14:04 2012
Module time:
	user time   =       0.21 seconds =       0.00 minutes
	system time =       0.03 seconds =       0.00 minutes
	total time  =          0 seconds =       0.00 minutes
Total time:
	user time   =      44.77 seconds =       0.75 minutes
	system time =      42.37 seconds =       0.71 minutes
	total time  =         97 seconds =       1.62 minutes

			----------------------------------
			 OPTKING: for geometry optimizations  
			  - R.A. King,  Bethel University   
			------------------------------------

	Previous internal coordinate definitions found.
	---Fragment 1 Geometry and Gradient---
	 C           0.0000000000        0.0000000000       -0.1384081700
	 H           0.0000000000       -1.8515379427        0.8240011844
	 H           0.0000000000        1.8515379427        0.8240011844
	             0.0000000000        0.0000000000       -0.0147306158
	             0.0000000000       -0.0014690354        0.0073653079
	             0.0000000000        0.0014690354        0.0073653079

	---Fragment 1 Intrafragment Coordinates---
	 - Coordinate -           - BOHR/RAD -       - ANG/DEG -
	 R(1,2)           =         2.086726	       1.104248
	 R(1,3)           =         2.086726	       1.104248
	 B(2,1,3)         =         2.182886	     125.070156

	Current energy   :       -39.0428871825

	Energy change for the previous step:
		Projected    :        -0.0068552661
		Actual       :        -0.0083012037
	Energy ratio indicates good step: Trust radius increased to 8.000e-01.


	Performing BFGS update with previous 1 gradient(s).
	Going to follow RFO solution 1.
	Projected energy change by RFO approximation:        -0.0006870790

	Back-transformation to cartesian coordinates...
	Successfully converged to displaced geometry.

	---Internal Coordinate Step in ANG or DEG, aJ/ANG or AJ/DEG ---
	 ----------------------------------------------------------------------
	 Coordinate             Previous        Force       Change         New 
	 ----------             --------       ------       ------       ------
	 R(1,2)          =      1.104248    -0.038725    -0.009673     1.094575
	 R(1,3)          =      1.104248    -0.038725    -0.009673     1.094575
	 B(2,1,3)        =    125.070156     0.000930     5.635777   130.705934
	 ----------------------------------------------------------------------

  ==> Convergence Check <==

  Measures of convergence in internal coordinates in au.
  Criteria marked as inactive (o), active & met (*), and active & unmet ( ).
  ---------------------------------------------------------------------------------------------
   Step     Total Energy     Delta E     MAX Force     RMS Force      MAX Disp      RMS Disp   
  ---------------------------------------------------------------------------------------------
    Convergence Criteria    1.00e-07 *    1.00e-06 *             o    1.00e-06 *             o
  ---------------------------------------------------------------------------------------------
      2     -39.04288718   -8.30e-03      1.22e-02      8.03e-03 o    9.84e-02      5.87e-02 o  ~
  ---------------------------------------------------------------------------------------------

	Writing optimization data to binary file.
	Structure for next step:
	Cartesian Geometry (au)
[...]


*** tstop() called on lawn-143-215-103-161.lawn.gatech.edu at Fri Apr 27 14:16:42 2012
Module time:
	user time   =       0.63 seconds =       0.01 minutes
	system time =       0.69 seconds =       0.01 minutes
	total time  =          4 seconds =       0.07 minutes
Total time:
	user time   =     113.71 seconds =       1.90 minutes
	system time =     109.93 seconds =       1.83 minutes
	total time  =        255 seconds =       4.25 minutes

*** tstart() called on lawn-143-215-103-161.lawn.gatech.edu
*** at Fri Apr 27 14:16:42 2012

			**************************
			*                        *
			*        CCTRIPLES       *
			*                        *
			**************************


	Wave function   =    CCSD_T
	Reference wfn   =      UHF

	Nuclear Rep. energy (chkpt)   =    6.064815093536031
	SCF energy          (chkpt)   =  -38.926551991536897
	Reference energy    (file100) =  -38.926551991536876
	CCSD energy         (file100) =   -0.115369973335825
	Total CCSD energy   (file100) =  -39.041921964872699

	Number of ijk index combinations:
	Spin Case AAA: 125
	Spin Case BBB: 27
	Spin Case AAB: 75
	Spin Case ABB: 45

	Number of abc index combinations:
	Spin Case AAA: 6859
	Spin Case BBB: 9261
	Spin Case AAB: 7581
	Spin Case ABB: 8379

	Computing (T) contributions to CC density...
	AAA (T) energy                =   -0.000063849986167
	BBB (T) energy                =   -0.000000072361870
	AAB (T) energy                =   -0.001371951984825
	ABB (T) energy                =   -0.000354432981448
	(T) energy                    =   -0.001790307314309
      * CCSD(T) total energy          =  -39.043712272187008


*** tstop() called on lawn-143-215-103-161.lawn.gatech.edu at Fri Apr 27 14:17:27 2012
Module time:
	user time   =      21.17 seconds =       0.35 minutes
	system time =      21.18 seconds =       0.35 minutes
	total time  =         45 seconds =       0.75 minutes
Total time:
	user time   =     134.88 seconds =       2.25 minutes
	system time =     131.11 seconds =       2.19 minutes
	total time  =        300 seconds =       5.00 minutes

*** tstart() called on lawn-143-215-103-161.lawn.gatech.edu
*** at Fri Apr 27 14:17:27 2012


			**************************
			*                        *
			*         CCHBAR         *
			*                        *
			**************************


*** tstop() called on lawn-143-215-103-161.lawn.gatech.edu at Fri Apr 27 14:17:27 2012
Module time:
	user time   =       0.05 seconds =       0.00 minutes
	system time =       0.05 seconds =       0.00 minutes
	total time  =          0 seconds =       0.00 minutes
Total time:
	user time   =     134.93 seconds =       2.25 minutes
	system time =     131.16 seconds =       2.19 minutes
	total time  =        300 seconds =       5.00 minutes

*** tstart() called on lawn-143-215-103-161.lawn.gatech.edu
*** at Fri Apr 27 14:17:27 2012


			**************************
			*        CCLAMBDA        *
			**************************


	Nuclear Rep. energy (chkpt)   =    6.064815093536031
	Reference           (chkpt)   = 2
	SCF energy          (chkpt)   =  -38.926551991536897
	Reference energy    (CC_INFO) =  -38.926551991536876

	Input parameters:
	-----------------
	Maxiter       =      50
	Convergence   = 1.0e-10
	Restart       =     No
	Cache Level   =     2
	Model III     =     No
	DIIS          =     Yes
	AO Basis      =     No
	ABCD            =     NEW
	Local CC        =     No
	Paramaters for left-handed eigenvectors:
	    Irr   Root  Ground-State?    EOM energy        R0
	  1   0     0        Yes       0.0000000000   1.0000000000
	Labels for eigenvector 1:
	LIA 0 -1, Lia 0 -1, LIJAB 0 -1, Lijab 0 -1, LIjAb 0 -1, 2LIjAb - LIjbA 0 -1
	Symmetry of left-hand state: B1
	Symmetry of left-hand eigenvector: A1

	          Solving Lambda Equations
	          ------------------------
	Iter     PseudoEnergy or Norm         RMS  
	----     ---------------------     --------
	   0        -0.115334720918324    3.335e-11
	   1        -0.115775310752150    6.209e-03
	   2        -0.115799887626511    1.623e-03
	   3        -0.115825910509853    6.862e-04
	   4        -0.115843691143109    1.990e-04
	   5        -0.115846924041563    6.074e-05
	   6        -0.115846919036582    2.036e-05
	   7        -0.115847098487818    6.772e-06
	   8        -0.115847141862516    2.177e-06
	   9        -0.115847128781281    5.647e-07
	  10        -0.115847130265199    1.646e-07
	  11        -0.115847133335018    5.133e-08
	  12        -0.115847133699277    1.477e-08
	  13        -0.115847133648405    4.447e-09
	  14        -0.115847133661372    1.239e-09
	  15        -0.115847133665969    3.246e-10
	  16        -0.115847133666340    1.044e-10
	  17        -0.115847133666528    3.335e-11

	Largest LIA Amplitudes:
	          1   1        -0.0091532001
	          1   0        -0.0090539886
	          4  13        -0.0061994477
	          4  15        -0.0055477048
	          4  14         0.0051024166
	          4  16         0.0047099812
	          3  11        -0.0040617082
	          2   4        -0.0036959766
	          2   5        -0.0033185445
	          3  10        -0.0030283595

	Largest Lia Amplitudes:
	          1   0         0.0161417595
	          1   2         0.0117886717
	          1   1         0.0085677532
	          1   4        -0.0069462678
	          2  17         0.0063067115
	          1   6        -0.0051113225
	          2  19         0.0040505082
	          1   7        -0.0036541402
	          2  20         0.0032048385
	          2  15         0.0029078942

	Largest LIJAB Amplitudes:
	  3   2  10   2        -0.0340711489
	  3   2  11   4        -0.0246698039
	  4   3   8   1         0.0223525333
	  4   3  13  10        -0.0213056719
	  4   3  15  10        -0.0207307238
	  4   2  13   1         0.0182612119
	  4   2  15   1         0.0176627938
	  4   2  14   2        -0.0163856315
	  3   1  10   3         0.0151870733
	  3   1  10   0        -0.0148408549

	Largest Lijab Amplitudes:
	  2   1  11   9        -0.0103209315
	  2   1  15   1        -0.0078211669
	  2   1  16   0         0.0074061115
	  2   1  17   0        -0.0069801129
	  2   1  17   4         0.0065996959
	  2   1  16   1        -0.0065992226
	  2   1  15   4         0.0065461055
	  2   1  15   0        -0.0061857292
	  2   1  16   3        -0.0049036703
	  2   1  12   9        -0.0045835379

	Largest LIjAb Amplitudes:
	  4   2   1   2        -0.0368064356
	  4   2  15  17        -0.0347958497
	  3   1   0  11        -0.0308470193
	  3   1   1  11        -0.0295325451
	  4   2  13  15        -0.0276391004
	  2   1   4   0        -0.0275752825
	  2   1  11  11         0.0265346516
	  3   1  11   0        -0.0263261304
	  2   2   2  17        -0.0261682705
	  3   2  10  15        -0.0259185075

	Iterations converged.

	Overlap <L|e^T> =        0.94800313512

*** tstop() called on lawn-143-215-103-161.lawn.gatech.edu at Fri Apr 27 14:17:28 2012
Module time:
	user time   =       0.20 seconds =       0.00 minutes
	system time =       0.15 seconds =       0.00 minutes
	total time  =          1 seconds =       0.02 minutes
Total time:
	user time   =     135.13 seconds =       2.25 minutes
	system time =     131.31 seconds =       2.19 minutes
	total time  =        301 seconds =       5.02 minutes

*** tstart() called on lawn-143-215-103-161.lawn.gatech.edu
*** at Fri Apr 27 14:17:28 2012


			**************************
			*                        *
			*        CCDENSITY       *
			*                        *
			**************************


	Input parameters:
	-----------------
	Wave function    = CCSD_T
	Reference wfn    =   UHF
	Dertype          = 1
	Tolerance        = 1.0e-14
	Cache Level      = 2
	AO Basis         = No
	OPDM Only        = No
	Relax OPDM       = Yes
	Compute Xi       = No
	Use Zeta         = No
	Xi connected     = Yes

	Nuclear Rep. energy (chkpt)   =    6.064815093536031
	SCF energy          (chkpt)   =  -38.926551991536897
	Reference energy    (file100) =  -38.926551991536876
	CCSD energy         (CC_INFO) =   -0.115369973335825
	(T) energy          (CC_INFO) =   -0.001790307314309
	Total CCSD(T) energy(CC_INFO) =  -39.043712272187008
	Number of States = 1

	Ground?  State     EOM Energy       R0
	  Yes     0 A1    0.0000000000   1.00000000

	Energies re-computed from CC density:
	-------------------------------------
	One-electron energy        =    0.147620442621684
	IJKL energy                =    0.028650911555789
	IJKA energy                =   -0.001097634610565
	IJAB energy                =   -0.228135701872084
	IBJA energy                =   -0.093210309804725
	CIAB energy                =   -0.004279047747539
	ABCD energy                =    0.033291059209390
	Total two-electron energy  =   -0.264780723269734
	CCSD(T) correlation energy =   -0.117160280648050
	Total CCSD(T) energy       =  -39.043712272184926

	Energies re-computed from Fock-adjusted CC density:
	---------------------------------------------------
	One-electron energy        =    0.094252850217020
	IJKL energy                =   -0.355503833672709
	IJKA energy                =    0.008694500718559
	IJAB energy                =   -0.228135701872084
	IBJA energy                =    0.334519892499218
	CIAB energy                =   -0.004279047747539
	ABCD energy                =    0.033291059209390
	Total two-electron energy  =   -0.211413130865165
	CCSD(T) correlation energy =   -0.117160280648144
	Total CCSD(T) energy       =  -39.043712272185019

	Energies re-computed from Mulliken density:
	-------------------------------------------
	One-electron energy        =    0.094252850217020
	IjKl energy                =   -0.196622520713054
	IJKL energy                =   -0.115037612950998
	ijkl energy                =   -0.043843700008658
	IjKa+iJkA energy           =    0.014050058918529
	IJKA energy                =   -0.022821382407734
	ijka energy                =    0.017465824207764
	IjAb energy                =   -0.173813157280131
	IJAB energy                =   -0.042473625938556
	ijab energy                =   -0.004673543122652
	IBJA energy                =    0.109642166534057
	ibja energy                =    0.049689880256611
	iBjA+IbJa energy           =    0.168012470177805
	cIaB+CiAb energy           =   -0.003612880638122
	CIAB energy                =   -0.000414052433885
	ciab energy                =   -0.000252114675533
	AbCd energy                =    0.029052707201847
	ABCD energy                =    0.003947357072517
	abcd energy                =    0.000290994935027
	Total two-electron energy  =   -0.211413130865165
	CCSD(T) correlation energy =   -0.117160280648145
	Total CCSD(T) energy       =  -39.043712272185019

*** tstop() called on lawn-143-215-103-161.lawn.gatech.edu at Fri Apr 27 14:17:29 2012
Module time:
	user time   =       0.10 seconds =       0.00 minutes
	system time =       0.08 seconds =       0.00 minutes
	total time  =          1 seconds =       0.02 minutes
Total time:
	user time   =     135.23 seconds =       2.25 minutes
	system time =     131.39 seconds =       2.19 minutes
	total time  =        302 seconds =       5.03 minutes

*** tstart() called on lawn-143-215-103-161.lawn.gatech.edu
*** at Fri Apr 27 14:17:29 2012

 DERIV: Derivative code.
   by Justin Turney

  Cartesian Displacement SALCs
  By SALC:
  Number of SALCs: 3, nirreps: 1
  Project out translations: False
  Project out rotations: False
	irrep = 0, ncomponent = 1
		0: atom 0, direction z, coef 1.000000
	irrep = 0, ncomponent = 2
		0: atom 1, direction y, coef 0.707107
		1: atom 2, direction y, coef -0.707107
	irrep = 0, ncomponent = 2
		0: atom 1, direction z, coef 0.707107
		1: atom 2, direction z, coef 0.707107

  By Atomic Center:
  Number of atomic centers: 3
   Atomic Center 0:
	x component, size = 0
	y component, size = 0
	z component, size = 1
		0: salc 0, irrep 0, coef 1.000000
   Atomic Center 1:
	x component, size = 0
	y component, size = 1
		0: salc 1, irrep 0, coef 0.707107
	z component, size = 1
		0: salc 2, irrep 0, coef 0.707107
   Atomic Center 2:
	x component, size = 0
	y component, size = 1
		0: salc 1, irrep 0, coef -0.707107
	z component, size = 1
		0: salc 2, irrep 0, coef 0.707107

    Molecular point group: c2v

    Geometry (in Bohr), charge = 0, multiplicity = 3:

       Center              X                  Y                   Z       
    ------------   -----------------  -----------------  -----------------
           C          0.000000000000     0.000000000000    -0.120464002189
           H          0.000000000000    -1.891628165812     0.717172118309
           H          0.000000000000     1.891628165812     0.717172118309

	Presorting MO-basis TPDMs.
	Sorting File: MO TPDM (AA|AA) nbuckets = 1
	Sorting File: MO TPDM (AA|aa) nbuckets = 1
	Sorting File: MO TPDM (aa|aa) nbuckets = 1
	Starting first half-transformation.
	Sorting half-transformed TPDMs.
	First half integral transformation complete.


  -Nuclear Repulsion Energy 1st Derivatives:
     Atom            X                  Y                   Z
    ------   -----------------  -----------------  -----------------
       1        0.000000000000     0.000000000000     1.135239570809
       2        0.000000000000     1.351718460328    -0.567619785404
       3        0.000000000000    -1.351718460328    -0.567619785404


  -One-electron contribution to gradient:
     Atom            X                  Y                   Z
    ------   -----------------  -----------------  -----------------
       1        0.000000000000     0.000000000000    -2.836138884802
       2        0.000000000000    -3.357735529435     1.418069442401
       3        0.000000000000     3.357735529435     1.418069442401


  -Lagrangian contribution to gradient:
     Atom            X                  Y                   Z
    ------   -----------------  -----------------  -----------------
       1        0.000000000000     0.000000000000     0.186760326451
       2        0.000000000000     0.203342013907    -0.093380163225
       3        0.000000000000    -0.203342013907    -0.093380163225


  -Two-electron contribution to gradient:
     Atom            X                  Y                   Z
    ------   -----------------  -----------------  -----------------
       1        0.000000000000     0.000000000000     1.514138971068
       2        0.000000000000     1.802675051751    -0.757069485534
       3        0.000000000000    -1.802675051751    -0.757069485534


  -Total gradient:
     Atom            X                  Y                   Z
    ------   -----------------  -----------------  -----------------
       1        0.000000000000     0.000000000000    -0.000000016475
       2        0.000000000000    -0.000000003449     0.000000008238
       3        0.000000000000     0.000000003449     0.000000008238


*** tstop() called on lawn-143-215-103-161.lawn.gatech.edu at Fri Apr 27 14:17:29 2012
Module time:
	user time   =       0.21 seconds =       0.00 minutes
	system time =       0.03 seconds =       0.00 minutes
	total time  =          0 seconds =       0.00 minutes
Total time:
	user time   =     135.44 seconds =       2.26 minutes
	system time =     131.42 seconds =       2.19 minutes
	total time  =        302 seconds =       5.03 minutes

			----------------------------------
			 OPTKING: for geometry optimizations  
			  - R.A. King,  Bethel University   
			------------------------------------

	Previous internal coordinate definitions found.
	---Fragment 1 Geometry and Gradient---
	 C           0.0000000000        0.0000000000       -0.1204640022
	 H           0.0000000000       -1.8916281658        0.7171721183
	 H           0.0000000000        1.8916281658        0.7171721183
	             0.0000000000        0.0000000000       -0.0000000165
	             0.0000000000       -0.0000000034        0.0000000082
	             0.0000000000        0.0000000034        0.0000000082

	---Fragment 1 Intrafragment Coordinates---
	 - Coordinate -           - BOHR/RAD -       - ANG/DEG -
	 R(1,2)           =         2.068790	       1.094757
	 R(1,3)           =         2.068790	       1.094757
	 B(2,1,3)         =         2.307872	     132.231301

	Current energy   :       -39.0437122722

	Energy change for the previous step:
		Projected    :        -0.0000000002
		Actual       :        -0.0000000002

	Performing BFGS update with previous 1 gradient(s).
	Denominators (dg)(dq) or (dq)(dq) are very small.
	 Skipping Hessian update for step 5.
	Going to follow RFO solution 1.
	Projected energy change by RFO approximation:        -0.0000000000

	Back-transformation to cartesian coordinates...
	Successfully converged to displaced geometry.

	---Internal Coordinate Step in ANG or DEG, aJ/ANG or AJ/DEG ---
	 ----------------------------------------------------------------------
	 Coordinate             Previous        Force       Change         New 
	 ----------             --------       ------       ------       ------
	 R(1,2)          =      1.094757    -0.000000    -0.000000     1.094757
	 R(1,3)          =      1.094757    -0.000000    -0.000000     1.094757
	 B(2,1,3)        =    132.231301     0.000000     0.000008   132.231310
	 ----------------------------------------------------------------------

  ==> Convergence Check <==

  Measures of convergence in internal coordinates in au.
  Criteria marked as inactive (o), active & met (*), and active & unmet ( ).
  ---------------------------------------------------------------------------------------------
   Step     Total Energy     Delta E     MAX Force     RMS Force      MAX Disp      RMS Disp   
  ---------------------------------------------------------------------------------------------
    Convergence Criteria    1.00e-07 *    1.00e-06 *             o    1.00e-06 *             o
  ---------------------------------------------------------------------------------------------
      6     -39.04371227   -1.66e-10 *    1.27e-08 *    9.04e-09 o    1.44e-07 *    8.55e-08 o  ~
  ---------------------------------------------------------------------------------------------


  **** Optimization is complete! ****

  ==> Optimization Summary <==

  Measures of convergence in internal coordinates in au.
  --------------------------------------------------------------------------------------------------------------- ~
   Step         Total Energy             Delta E       MAX Force       RMS Force        MAX Disp        RMS Disp  ~
  --------------------------------------------------------------------------------------------------------------- ~
      1     -39.034585978787    -39.034585978787      0.04872183      0.02822322      0.28047714      0.16206613  ~
      2     -39.042887182462     -0.008301203675      0.01222333      0.00803320      0.09836287      0.05871823  ~
      3     -39.043678868649     -0.000791686187      0.00251656      0.00150635      0.02406550      0.01389780  ~
      4     -39.043711973341     -0.000033104693      0.00023453      0.00013624      0.00249727      0.00144223  ~
      5     -39.043712272021     -0.000000298680      0.00000552      0.00000326      0.00005992      0.00003459  ~
      6     -39.043712272187     -0.000000000166      0.00000001      0.00000001      0.00000014      0.00000009  ~
  --------------------------------------------------------------------------------------------------------------- ~

	Writing optimization data to binary file.
	Final energy is    -39.0437122721870
	Final (previous) structure:
	Cartesian Geometry (au)
	    C     0.0000000000   0.0000000000  -0.1204640022
	    H     0.0000000000  -1.8916281658   0.7171721183
	    H     0.0000000000   1.8916281658   0.7171721183
	Saving final (previous) structure.
			--------------------------
			 OPTKING Finished Execution 
			--------------------------

	Final optimized geometry and variables (in Angstrom):

	C
	H     1    1.094756
	H     1    1.094756     2  132.231301


*** PSI4 exiting successfully. Buy a developer a beer!
