    -----------------------------------------------------------------------
          PSI4: An Open-Source Ab Initio Electronic Structure Package
                              PSI 4.0.0-beta1 Driver

               Git: Rev 8268e5ba0276eef671d5bc4a44cf66fa46407463

    J. M. Turney, A. C. Simmonett, R. M. Parrish, E. G. Hohenstein,
    F. A. Evangelista, J. T. Fermann, B. J. Mintz, L. A. Burns, J. J. Wilke,
    M. L. Abrams, N. J. Russ, M. L. Leininger, C. L. Janssen, E. T. Seidl,
    W. D. Allen, H. F. Schaefer, R. A. King, E. F. Valeev, C. D. Sherrill,
    and T. D. Crawford, WIREs Comput. Mol. Sci., (2011) (doi: 10.1002/wcms.93)

                         Additional Contributions by
    A. E. DePrince, M. Saitow, U. Bozkaya, A. Yu. Sokolov
    -----------------------------------------------------------------------


    Using LocalCommunicator (Number of processes = 1)

    Memory level set to 256.000 MB

  ==> Input File <==

--------------------------------------------------------------------------
#! Mk-MRPT2 single point. $^1A@@1$ F2 state described using
#! the Ms = 0 component of the singlet.  Uses TCSCF singlet orbitals.

memory 250 mb

refnuc      =   30.357990246684  #TEST
refscf      = -198.761465908975  #TEST
refmkpt2    = -199.077889439219  #TEST

molecule ch2 {
  0 1
  F
  F 1 2.668160815054

  units au
}

set {
  basis cc-pvdz
  e_convergence 10
  d_convergence 10
  r_convergence 10
}

set mcscf {
  reference       twocon
  docc            [2,0,1,1,0,2,1,1]      # Doubly occupied MOs
  socc            [1,0,0,0,0,1,0,0]      # Singly occupied MOs
}


set psimrcc {
  corr_wfn        pt2                    # Do Mk-MRPT2 
  frozen_docc     [1,0,0,0,0,1,0,0]      # Frozen MOs
  restricted_docc [1,0,1,1,0,1,1,1]      # Doubly occupied MOs
  active          [1,0,0,0,0,1,0,0]      # Active MOs
  frozen_uocc     [0,0,0,0,0,0,0,0]      # Frozen virtual MOs
  corr_multp      1                      # Select the Ms = 0 component
  wfn_sym         Ag                     # Select the Ag state
}

energy('psimrcc')
compare_values(refnuc, ch2.nuclear_repulsion_energy()     , 9, "Nuclear repulsion energy") #TEST 
compare_values(refscf, get_variable("SCF TOTAL ENERGY")  , 9, "SCF energy")               #TEST 
compare_values(refmkpt2, get_variable("CURRENT ENERGY") , 8, "Mk-MRPT2 energy")            #TEST 
--------------------------------------------------------------------------

  Memory set to 250.000 MiB by Python script.

         ------------------------------------------
           MCSCF: a self-consistent field program
            written by Francesco A. Evangelista
         ------------------------------------------    Molecular point group: d2h

    Geometry (in Bohr), charge = 0, multiplicity = 1:

       Center              X                  Y                   Z       
    ------------   -----------------  -----------------  -----------------
           F          0.000000000000     0.000000000000    -1.334080407527
           F          0.000000000000     0.000000000000     1.334080407527

  -AO BASIS SET INFORMATION:
    Name                   = cc-pvdz
    Total number of shells = 12
    Number of primitives   = 44
    Number of AO           = 30
    Number of SO           = 28
    Maximum AM             = 2
    Spherical Harmonics    = TRUE

  -Contraction Scheme:
    Atom   Type   All Primitives // Shells:
   ------ ------ --------------------------
       1     F     17s 4p 1d // 3s 2p 1d 
       2     F     17s 4p 1d // 3s 2p 1d 

  -Basis set on unique center 1: F
     S (      14710.00000000           0.68605396)
       (       2207.00000000           1.27377561)
       (        502.80000000           2.13815742)
       (        142.60000000           3.12913526)
       (         46.47000000           3.63658177)
       (         16.70000000           2.64027899)
       (          6.35600000           0.75501475)
       (          1.31600000           0.01342093)
     S (      14710.00000000          -0.30576437)
       (       2207.00000000          -0.58432291)
       (        502.80000000          -0.95679530)
       (        142.60000000          -1.52808641)
       (         46.47000000          -1.81962328)
       (         16.70000000          -1.95730098)
       (          6.35600000          -0.62382891)
       (          1.31600000           0.95940115)
     S (          0.38970000           0.35152636)
     P (         22.67000000           4.57148657)
       (          4.97700000           3.60837656)
       (          1.34700000           1.51959530)
     P (          0.34710000           0.37975924)
     D (          1.64000000           3.91188600)

  -Basis set on unique center 2: F
     S (      14710.00000000           0.68605396)
       (       2207.00000000           1.27377561)
       (        502.80000000           2.13815742)
       (        142.60000000           3.12913526)
       (         46.47000000           3.63658177)
       (         16.70000000           2.64027899)
       (          6.35600000           0.75501475)
       (          1.31600000           0.01342093)
     S (      14710.00000000          -0.30576437)
       (       2207.00000000          -0.58432291)
       (        502.80000000          -0.95679530)
       (        142.60000000          -1.52808641)
       (         46.47000000          -1.81962328)
       (         16.70000000          -1.95730098)
       (          6.35600000          -0.62382891)
       (          1.31600000           0.95940115)
     S (          0.38970000           0.35152636)
     P (         22.67000000           4.57148657)
       (          4.97700000           3.60837656)
       (          1.34700000           1.51959530)
     P (          0.34710000           0.37975924)
     D (          1.64000000           3.91188600)

 MINTS: Wrapper to libmints.
   by Justin Turney

   Calculation information:
      Number of atoms:                   2
      Number of AO shells:              12
      Number of SO shells:               6
      Number of primitives:             44
      Number of atomic orbitals:        30
      Number of basis functions:        28

      Number of irreps:                  8
      Number of functions per irrep: [   7    1    3    3    1    7    3    3 ]

      Overlap, kinetic, potential, dipole, and quadrupole integrals
        stored in file 35.

      Computing two-electron integrals...done
      Computed 10381 non-zero two-electron integrals.
        Stored in file 33.



  MOs per irrep:                  Ag  B1g  B2g  B3g  Au  B1u  B2u  B3u Total
  ----------------------------------------------------------------------------
  Total                            7    1    3    3    1    7    3    3    28
  Doubly Occupied                  2    0    1    1    0    2    1    1     8
  Active/Singly Occupied           1    0    0    0    0    1    0    0     2
  ----------------------------------------------------------------------------

  Running an SCF calculation
  TWOCON MOs = [2 (Ag),17 (B1u)]

  Generated 406 pairs
  Distributed as [82 Ag][32 B1g][48 B2g][48 B3g][32 Au][68 B1u][48 B2u][48 B3u]
  batch   0 pq = [       0,      82] index = [               0,            3403]

  Allocated the PK matrix (3403 elements) 
  Allocated the  K matrix (3403 elements) 
  Reading the two-electron integrals to form PK and K ... 
  batch   0 ... done.


  =========================================================================================
         Cycle          Energy               D(Energy)            D(Density)            DIIS
  =========================================================================================== S
  @SCF    0     -189.360774503204    -189.360774503204       0.091812897992
    ci      = [ 0.00000000, 0.00000000]
    ci_grad = [ 0.00000000, 0.00000000] S
  @SCF    1     -198.355475618139      -8.994701114935       0.091234560034
    ci      = [ 0.00000000, 0.00000000]
    ci_grad = [ 0.00000000, 0.00000000] S
  @SCF    2     -198.251342500765       0.104133117374       0.019711376026
    ci      = [ 0.00000000, 0.00000000]
    ci_grad = [ 0.00000000, 0.00000000] S
  @SCF    3     -198.484258331590      -0.232915830825       0.015095270716
    ci      = [ 0.00000000, 0.00000000]
    ci_grad = [ 0.00000000, 0.00000000] S
  @SCF    4     -198.392878656883       0.091379674708       0.011186346477
    ci      = [ 0.00000000, 0.00000000]
    ci_grad = [ 0.00000000, 0.00000000] S
  @SCF    5     -198.481554124987      -0.088675468104       0.008844669897
    ci      = [ 0.00000000, 0.00000000]
    ci_grad = [ 0.00000000, 0.00000000] S
  @SCF    6     -198.425649541929       0.055904583058       0.007114453358
    ci      = [ 0.00000000, 0.00000000]
    ci_grad = [ 0.00000000, 0.00000000] S/E
  @SCF    7     -198.479203583098      -0.053554041169       0.005797852168
    ci      = [ 0.00000000, 0.00000000]
    ci_grad = [ 0.00000000, 0.00000000] S/E
  @SCF    8     -198.465336453887       0.013867129211       0.002658795732
    ci      = [ 0.00000000, 0.00000000]
    ci_grad = [ 0.00000000, 0.00000000] S/E
  @SCF    9     -198.465432305730      -0.000095851842       0.000013814611
    ci      = [ 0.00000000, 0.00000000]
    ci_grad = [ 0.00000000, 0.00000000] S/E
  @SCF   10     -198.465355589323       0.000076716406       0.000003854721
    ci      = [ 0.00000000, 0.00000000]
    ci_grad = [ 0.00000000, 0.00000000] S/E
  @SCF   11     -198.465336733168       0.000018856155       0.000001941669
    ci      = [ 0.00000000, 0.00000000]
    ci_grad = [ 0.00000000, 0.00000000] S/E
  @SCF   12     -198.465344070202      -0.000007337034       0.000000752829
    ci      = [-0.96744144, 0.25309495]
    ci_grad = [ 0.00000000, 0.00000000] S/E
  @SCF   13     -198.465345396929      -0.000001326727       0.000000222487
    ci      = [-0.96744130, 0.25309550]
    ci_grad = [ 0.00000115,-0.00000086] S/E
  @SCF   14     -198.465343521545       0.000001875384       0.000000046486
    ci      = [-0.96744121, 0.25309586]
    ci_grad = [-0.00000190, 0.00000013] S/E
  @SCF   15     -198.465335196773       0.000008324772       0.000000213781
    ci      = [-0.96744089, 0.25309705]
    ci_grad = [-0.00000835, 0.00000097] S/E
  @SCF   16     -198.465338116747      -0.000002919974       0.000000079695
    ci      = [-0.96744102, 0.25309656]
    ci_grad = [ 0.00000295,-0.00000027] S/E
  @SCF   17     -198.465337816490       0.000000300257       0.000000069997
    ci      = [-0.96744108, 0.25309634]
    ci_grad = [-0.00000023, 0.00000029] S/E
  @SCF   18     -198.465336777575       0.000001038914       0.000000233767
    ci      = [-0.96744127, 0.25309563]
    ci_grad = [-0.00000083, 0.00000094] S/E
  @SCF   19     -198.465333575066       0.000003202509       0.000000365147
    ci      = [-0.96744077, 0.25309751]
    ci_grad = [-0.00000357,-0.00000098] S/E
  @SCF   20     -198.746581294010      -0.281247718944       0.018129319724
    ci      = [-0.96744077, 0.25309751]
    ci_grad = [ 0.27269755,-0.06884011] S/E
  @SCF   21     -198.752599314250      -0.006018020240       0.004069894656
    ci      = [-0.96744077, 0.25309751]
    ci_grad = [ 0.00403892,-0.00815901] S/E
  @SCF   22     -198.756325952595      -0.003726638344       0.003503629260
    ci      = [-0.96744077, 0.25309751]
    ci_grad = [ 0.00031665,-0.01293507] S/E
  @SCF   23     -198.759705379254      -0.003379426660       0.004191490476
    ci      = [-0.96744077, 0.25309751]
    ci_grad = [-0.00060499,-0.01489834] S/E
  @SCF   24     -198.761024550742      -0.001319171488       0.004040517935
    ci      = [-0.96744077, 0.25309751]
    ci_grad = [-0.00150056,-0.01056017] S/E
  @SCF   25     -198.761153597367      -0.000129046625       0.000356698949
    ci      = [-0.96744077, 0.25309751]
    ci_grad = [-0.00262873,-0.01017763] S/E
  @SCF   26     -198.761282893113      -0.000129295746       0.000433585795
    ci      = [-0.96744077, 0.25309751]
    ci_grad = [-0.00252089,-0.00979530] S/E
  @SCF   27     -198.761395721430      -0.000112828316       0.000521921942
    ci      = [-0.96744077, 0.25309751]
    ci_grad = [-0.00255645,-0.00986155] S/E
  @SCF   28     -198.761447147682      -0.000051426253       0.000727726093
    ci      = [-0.96744077, 0.25309751]
    ci_grad = [-0.00255943,-0.00964476] S/E
  @SCF   29     -198.761449701932      -0.000002554249       0.000077662484
    ci      = [-0.96520986, 0.26147644]
    ci_grad = [-0.00260851,-0.00963878] S/E
  @SCF   30     -198.761454697641      -0.000004995709       0.000120751836
    ci      = [-0.96520131, 0.26150798]
    ci_grad = [-0.00000502,-0.00003762] S/E
  @SCF   31     -198.761459214138      -0.000004516498       0.000124308041
    ci      = [-0.96512733, 0.26178091]
    ci_grad = [-0.00008076,-0.00031499] S/E
  @SCF   32     -198.761459210417       0.000000003721       0.000033053934
    ci      = [-0.96511760, 0.26181677]
    ci_grad = [-0.00001119,-0.00004122] S/E
  @SCF   33     -198.761454014846       0.000005195571       0.000107819761
    ci      = [-0.96518847, 0.26155539]
    ci_grad = [ 0.00007655, 0.00030233] S/E
  @SCF   34     -198.761455654697      -0.000001639851       0.000033336136
    ci      = [-0.96516893, 0.26162749]
    ci_grad = [-0.00002091,-0.00008341] S/E
  @SCF   35     -198.761457789089      -0.000002134392       0.000053410373
    ci      = [-0.96514250, 0.26172498]
    ci_grad = [-0.00002835,-0.00011270] S/E
  @SCF   36     -198.761458569659      -0.000000780570       0.000012405497
    ci      = [-0.96513076, 0.26176824]
    ci_grad = [-0.00001274,-0.00004997] S/E
  @SCF   37     -198.761464487402      -0.000005917742       0.000314307439
    ci      = [-0.96486978, 0.26272859]
    ci_grad = [-0.00029366,-0.00110100] S/E
  @SCF   38     -198.761465754895      -0.000001267494       0.000144116099
    ci      = [-0.96494290, 0.26245992]
    ci_grad = [ 0.00008505, 0.00030786] S/E
  @SCF   39     -198.761465867340      -0.000000112444       0.000023772975
    ci      = [-0.96492714, 0.26251782]
    ci_grad = [-0.00001796,-0.00006643] S/E
  @SCF   40     -198.761465883502      -0.000000016162       0.000014353698
    ci      = [-0.96493752, 0.26247969]
    ci_grad = [ 0.00001191, 0.00004374] S/E
  @SCF   41     -198.761465893167      -0.000000009665       0.000014888399
    ci      = [-0.96493472, 0.26248998]
    ci_grad = [-0.00000320,-0.00001181] S/E
  @SCF   42     -198.761465896883      -0.000000003716       0.000012076696
    ci      = [-0.96492992, 0.26250762]
    ci_grad = [-0.00000550,-0.00002024] S/E
  @SCF   43     -198.761465902515      -0.000000005633       0.000013309796
    ci      = [-0.96492763, 0.26251604]
    ci_grad = [-0.00000262,-0.00000966] S/E
  @SCF   44     -198.761465907347      -0.000000004832       0.000003646538
    ci      = [-0.96493082, 0.26250430]
    ci_grad = [ 0.00000367, 0.00001347] S/E
  @SCF   45     -198.761465908660      -0.000000001313       0.000002747574
    ci      = [-0.96493235, 0.26249868]
    ci_grad = [ 0.00000176, 0.00000645] S/E
  @SCF   46     -198.761465908773      -0.000000000114       0.000000456539
    ci      = [-0.96493246, 0.26249828]
    ci_grad = [ 0.00000012, 0.00000045] S/E
  @SCF   47     -198.761465908854      -0.000000000080       0.000001434582
    ci      = [-0.96493322, 0.26249548]
    ci_grad = [ 0.00000087, 0.00000321] S/E
  @SCF   48     -198.761465908949      -0.000000000095       0.000000765647
    ci      = [-0.96493269, 0.26249742]
    ci_grad = [-0.00000060,-0.00000222] S/E
  @SCF   49     -198.761465908966      -0.000000000017       0.000000288889
    ci      = [-0.96493267, 0.26249750]
    ci_grad = [-0.00000003,-0.00000009] S/E
  @SCF   50     -198.761465908973      -0.000000000007       0.000000315583
    ci      = [-0.96493247, 0.26249826]
    ci_grad = [-0.00000024,-0.00000087] S/E
  @SCF   51     -198.761465908974      -0.000000000001       0.000000137160
    ci      = [-0.96493245, 0.26249830]
    ci_grad = [-0.00000001,-0.00000005] S/E
  @SCF   52     -198.761465908976      -0.000000000001       0.000000155097
    ci      = [-0.96493252, 0.26249807]
    ci_grad = [ 0.00000007, 0.00000027] S/E
  @SCF   53     -198.761465908976      -0.000000000000       0.000000041518
    ci      = [-0.96493253, 0.26249804]
    ci_grad = [ 0.00000001, 0.00000003] S/E
  @SCF   54     -198.761465908976      -0.000000000000       0.000000010068
    ci      = [-0.96493253, 0.26249802]
    ci_grad = [ 0.00000001, 0.00000002] S/E
  @SCF   55     -198.761465908976       0.000000000000       0.000000003234
    ci      = [-0.96493253, 0.26249801]
    ci_grad = [ 0.00000000, 0.00000001] S/E
  @SCF   56     -198.761465908975       0.000000000000       0.000000001628
    ci      = [-0.96493253, 0.26249801]
    ci_grad = [ 0.00000000, 0.00000001] S/E
  @SCF   57     -198.761465908976      -0.000000000000       0.000000000738
    ci      = [-0.96493253, 0.26249801]
    ci_grad = [ 0.00000000, 0.00000000] S/E
  @SCF   58     -198.761465908976       0.000000000000       0.000000000396
    ci      = [-0.96493253, 0.26249801]
    ci_grad = [ 0.00000000, 0.00000000] S/E
  @SCF   59     -198.761465908976      -0.000000000000       0.000000001446
    ci      = [-0.96493253, 0.26249801]
    ci_grad = [-0.00000000,-0.00000000] S/E
  @SCF   60     -198.761465908976       0.000000000000       0.000000000721
    ci      = [-0.96493253, 0.26249801]
    ci_grad = [ 0.00000000, 0.00000000] S/E
  @SCF   61     -198.761465908976      -0.000000000000       0.000000000490
    ci      = [-0.96493253, 0.26249801]
    ci_grad = [-0.00000000,-0.00000000] S/E
  @SCF   62     -198.761465908976       0.000000000000       0.000000000184
    ci      = [-0.96493253, 0.26249801]
    ci_grad = [ 0.00000000, 0.00000000] S/E
  @SCF   63     -198.761465908976      -0.000000000000       0.000000000070
    ci      = [-0.96493253, 0.26249801]
    ci_grad = [-0.00000000,-0.00000000] S/E
  @SCF   64     -198.761465908976       0.000000000000       0.000000000017
    ci      = [-0.96493253, 0.26249801]
    ci_grad = [-0.00000000,-0.00000000] S/E
  @SCF   65     -198.761465908976      -0.000000000000       0.000000000016
    ci      = [-0.96493253, 0.26249801]
    ci_grad = [-0.00000000,-0.00000000]
  =========================================================================================

      * SCF total energy   =    -198.761465908976


      CI coefficients  = [-0.964932534, 0.262498008]

  End of SCF
  MOs orthonormality check passed.

  Orbitals are canonicalized as:
  inactive (docc + uocc) : Fock(core)
  active   (actv)        : Fock(core)

  =========================================================================
  Eigenvalues (Eh)
  -------------------------------------------------------------------------
  Doubly occupied orbitals
      1    -26.406970  Ag      2    -26.406767 B1u      3     -1.734929  Ag
      4     -1.491351 B1u      5     -0.796227 B2u      6     -0.796227 B3u
      7     -0.652091 B3g      8     -0.652091 B2g
  Active orbitals
      9     -0.730260  Ag     10      0.119866 B1u
  Unoccupied orbitals
     11      1.302697 B1u     12      1.317853 B2u     13      1.317853 B3u
     14      1.503944 B2g     15      1.503944 B3g     16      1.577401  Ag
     17      1.827155  Ag     18      2.323608 B1u     19      3.485634  Ag
     20      3.679273 B3u     21      3.679273 B2u     22      3.883745  Ag
     23      3.883745 B1g     24      3.935986 B1u     25      3.935986  Au
     26      4.168217 B3g     27      4.168217 B2g     28      5.003132 B1u
  =========================================================================


  MCSCF Execution Completed.


*** tstop() called on lawn-143-215-103-161.lawn.gatech.edu at Fri Apr 27 14:42:05 2012
Module time:
	user time   =       0.27 seconds =       0.00 minutes
	system time =       0.09 seconds =       0.00 minutes
	total time  = 1335552125 seconds = 22259202.08 minutes
Total time:
	user time   =       0.27 seconds =       0.00 minutes
	system time =       0.09 seconds =       0.00 minutes
	total time  = 1335552125 seconds = 22259202.08 minutes

  MRCC          MRCC
   MRCC  MRCC  MRCC
   MRCC  MRCC  MRCC      PSIMRCC Version 0.9.3.3, July 2009
   MRCC  MRCC  MRCC      Multireference Coupled Cluster, written by
     MRCCMRCCMRCC        Francesco A. Evangelista and Andrew C. Simmonett
         MRCC            Compiled on Apr 27 2012 at 13:46:20
         MRCC            id = 6a707c99fd2213714c6c78cfcd145480721f0359 
       MRCCMRCC

  ==============================================================================
  System Info:
  ------------------------------------------------------------------------------
  Nuclear Energy   = 30.357990247     SCF Energy       = -198.761465909 

  MOs and Symmetry:
  ------------------------------------------------------------------------------
  nirreps          = 8                root             = 0         
  nso              = 28               nmo              = 28        
  nael             = 9                nbel             = 9         
  nactive_ael      = 1                nactive_bel      = 1         

  Details of the Computation:
  ------------------------------------------------------------------------------

  MOs per irrep:                    Ag  B1g  B2g  B3g  Au  B1u  B2u  B3u Total
  ------------------------------------------------------------------------------
  Total                              7    1    3    3    1    7    3    3    28
  Frozen Occupied                    1    0    0    0    0    1    0    0     2
  Doubly Occupied                    1    0    1    1    0    1    1    1     6
  Active                             1    0    0    0    0    1    0    0     2
  External                           4    1    2    2    1    4    2    2    18
  Frozen Virtual                     0    0    0    0    0    0    0    0     0

  Model space
  ------------------------------------------------------------------------------
   0  |[20][][2][2][][22][2][2]>
   1  |[22][][2][2][][20][2][2]>
  ==============================================================================

  Allocated work array of size 27648 (0.03 MiB)
  Allocated buffer array of size 12612296 (12.03 MiB)	Presorting SO-basis two-electron integrals.
	Sorting File: SO Ints (nn|nn) nbuckets = 1
	Transforming the one-electron integrals and constructing Fock matrices
	Starting first half-transformation.
	Sorting half-transformed integrals.
	First half integral transformation complete.
	Starting second half-transformation.
	Two-electron integral transformation complete.


  Presorting two-electron integrals from IWL buffer
    Memory available                       =      237054402 bytes
    Memory available for presorting        =      177790801 bytes (75.0%)
    Memory required for in-core presort    =          92072 bytes
    Presorting is not required
    Reading irreps 0 -> 7 (10457 non-zero integrals)
  CCTransform: transforming one-electron integrals
    CCTransform: read 10457 non-zero integrals (MRPT2)

    Frozen-core energy                     =       -162.948514169

  Heff Matrix

        -197.693614892374         0.290495712793
           0.290495712793      -198.682440129312

  Left Matrix

          -0.262498007701         0.964932534405
           0.964932534405         0.262498007701

  Right Matrix

          -0.262498007701         0.964932534405
           0.964932534405         0.262498007701

  Real                  Imaginary

       -198.761465908975           0.000000000000
       -197.614589112711           0.000000000000


  The eigenvalue for root 0 is -198.761465908975 (0.000000000000)

  ==============================================================================
    Second-order Mukherjee Multireference Perturbation Theory (Mk-MRPT2)
    Using the DPD Library
  ==============================================================================

  ------------------------------------------------------------------------------
    @PT  Cycle         Energy           Delta E   
    @PT               (Hartree)        (Hartree)  
  ------------------------------------------------------------------------------
    @PT     0   -199.075596299514245  -3.1413e-01
    @PT     1   -199.077884507086480  -2.2882e-03
    @PT     2   -199.077889420746430  -4.9137e-06
    @PT     3   -199.077889439162760  -1.8416e-08
    @PT     4   -199.077889439216165  -5.3404e-11
  ------------------------------------------------------------------------------

      * Mk-MRPT2 total energy         =    -199.077889439216
      * relaxed Mk-MRPT2 total energy =    -199.081851620107


  Wrote second order energy to checkpoint file

  PSIMRCC job completed.
  Wall Time =             0.206664 s
  GEMM Time =             0.009164 s

  ==============================================================================
  Memory Usage Report

  Maximum memory used:     13.6 Mb 
  Number of objects still in memory: 0       Current bytes used: 0             
  ==============================================================================

*** PSI4 exiting successfully. Buy a developer a beer!
