    -----------------------------------------------------------------------
          PSI4: An Open-Source Ab Initio Electronic Structure Package
                              PSI 4.0.0-beta1 Driver

               Git: Rev 8268e5ba0276eef671d5bc4a44cf66fa46407463

    J. M. Turney, A. C. Simmonett, R. M. Parrish, E. G. Hohenstein,
    F. A. Evangelista, J. T. Fermann, B. J. Mintz, L. A. Burns, J. J. Wilke,
    M. L. Abrams, N. J. Russ, M. L. Leininger, C. L. Janssen, E. T. Seidl,
    W. D. Allen, H. F. Schaefer, R. A. King, E. F. Valeev, C. D. Sherrill,
    and T. D. Crawford, WIREs Comput. Mol. Sci., (2011) (doi: 10.1002/wcms.93)

                         Additional Contributions by
    A. E. DePrince, M. Saitow, U. Bozkaya, A. Yu. Sokolov
    -----------------------------------------------------------------------


    Using LocalCommunicator (Number of processes = 1)

    Memory level set to 256.000 MB

  ==> Input File <==

--------------------------------------------------------------------------
#! SCF cc-pVTZ geometry optimzation, with Z-matrix input

memory 250 mb

# These values are from a tightly converged QChem run
nucenergy = 9.3537237781                                                                     #TEST
refenergy = -76.057769702                                                                    #TEST

molecule h2o {
     O
     H 1 1.0
     H 1 1.0 2 104.5
# QChem optimized geometry
#  O           0.000000    0.000000    0.091671
#  H          -0.751206    0.000000   -0.474387
#  H           0.751206    0.000000   -0.474387
}

set globals {
  basis cc-pvtz
  e_convergence 10
  d_convergence 10
}

thisenergy = optimize('scf')

compare_values(nucenergy, h2o.nuclear_repulsion_energy(), 3, "Nuclear repulsion energy")    #TEST
compare_values(refenergy, thisenergy, 3, "Reference energy")                                #TEST
--------------------------------------------------------------------------

  Memory set to 250.000 MiB by Python script.

*** tstart() called on lawn-143-215-103-161.lawn.gatech.edu
*** at Fri Apr 27 13:58:20 2012

	There are an even number of electrons - assuming singlet.
	Specify the multiplicity with the MULTP option in the
	input if this is incorrect


         ---------------------------------------------------------
                                   SCF
            by Justin Turney, Rob Parrish, and Andy Simmonett
                              RHF Reference
                        1 Threads,    250 MiB Core
         ---------------------------------------------------------

  ==> Geometry <==

    Molecular point group: c2v

    Geometry (in Angstrom), charge = 0, multiplicity = 1:

       Center              X                  Y                   Z       
    ------------   -----------------  -----------------  -----------------
           O          0.000000000000     0.000000000000    -0.068516219310
           H          0.000000000000    -0.790689573744     0.543701060724
           H          0.000000000000     0.790689573744     0.543701060724

  Running in c2v symmetry.

  Nuclear repulsion =    8.801465529972068

  Charge       = 0
  Multiplicity = 1
  Electrons    = 10
  Nalpha       = 5
  Nbeta        = 5

  ==> Algorithm <==

  SCF Algorithm Type is PK.
  DIIS enabled.
  MOM disabled.
  Fractional occupation disabled.
  Guess Type is CORE.
  Energy threshold   = 1.00e-10
  Density threshold  = 1.00e-10
  Integral threshold = 0.00e+00

  ==> Primary Basis <==

  Basis Set: CC-PVTZ
    Number of shells: 22
    Number of basis function: 58
    Number of Cartesian functions: 65
    Spherical Harmonics?: true
    Max angular momentum: 3

  ==> Pre-Iterations <==

  Minimum eigenvalue in the overlap matrix is 2.9026033945E-03.
  Using Symmetric Orthogonalization.
  SCF Guess: Core (One-Electron) Hamiltonian.

  Initial RHF energy:   -60.32108560423962

   -------------------------------------------------------
    Irrep   Nso     Nmo     Nalpha   Nbeta   Ndocc  Nsocc
   -------------------------------------------------------
     A1        23      23       3       3       3       0
     A2         7       7       0       0       0       0
     B1        11      11       1       1       1       0
     B2        17      17       1       1       1       0
   -------------------------------------------------------
    Total      58      58       5       5       5       0
   -------------------------------------------------------

  ==> Integral Setup <==

 MINTS: Wrapper to libmints.
   by Justin Turney

   Calculation information:
      Number of atoms:                   3
      Number of AO shells:              22
      Number of SO shells:              16
      Number of primitives:             42
      Number of atomic orbitals:        65
      Number of basis functions:        58

      Number of irreps:                  4
      Number of functions per irrep: [  23    7   11   17 ]

      Overlap, kinetic, potential, dipole, and quadrupole integrals
        stored in file 35.

      Computing two-electron integrals...done
      Computed 350015 non-zero two-electron integrals.
        Stored in file 33.

  ==> Iterations <==

                        Total Energy        Delta E     Density RMS

   @RHF iter   1:   -61.31477156844860   -9.93686e-01   0.00000e+00 
	Occupation by irrep:
	         A1    A2    B1    B2 
	DOCC [     3,    0,    0,    2 ]

   @RHF iter   2:   -66.47670786804670   -5.16194e+00   3.97431e-01 DIIS
	Occupation by irrep:
	         A1    A2    B1    B2 
	DOCC [     3,    0,    1,    1 ]

   @RHF iter   3:   -73.60207142886733   -7.12536e+00   3.93935e-01 DIIS
   @RHF iter   4:   -75.62960603363483   -2.02753e+00   1.62017e-02 DIIS
   @RHF iter   5:   -76.04757120723603   -4.17965e-01   1.06644e-02 DIIS
   @RHF iter   6:   -76.05038785839869   -2.81665e-03   1.61483e-03 DIIS
   @RHF iter   7:   -76.05095480986196   -5.66951e-04   3.93969e-04 DIIS
   @RHF iter   8:   -76.05098978513185   -3.49753e-05   1.57198e-04 DIIS
   @RHF iter   9:   -76.05099162695295   -1.84182e-06   4.67739e-05 DIIS
   @RHF iter  10:   -76.05099168284573   -5.58928e-08   7.29344e-06 DIIS
   @RHF iter  11:   -76.05099168364499   -7.99261e-10   8.86125e-07 DIIS
   @RHF iter  12:   -76.05099168367620   -3.12070e-11   1.40649e-07 DIIS
   @RHF iter  13:   -76.05099168367687   -6.67910e-13   3.39452e-08 DIIS
   @RHF iter  14:   -76.05099168367686    1.42109e-14   4.12400e-09 DIIS
   @RHF iter  15:   -76.05099168367684    1.42109e-14   5.90629e-10 DIIS
   @RHF iter  16:   -76.05099168367677    7.10543e-14   1.20386e-10 DIIS

  ==> Post-Iterations <==

	Orbital Energies (a.u.)
	-----------------------

	Doubly Occupied:                                                      

	   1A1   -20.562136     2A1    -1.324716     1B2    -0.687035  
	   3A1    -0.569630     1B1    -0.501258  

	Virtual:                                                              

	   4A1     0.137475     2B2     0.199819     3B2     0.526443  
	   5A1     0.576765     6A1     0.677260     2B1     0.785878  
	   7A1     0.793724     4B2     0.805574     1A2     0.852179  
	   3B1     0.951616     8A1     1.165606     5B2     1.172302  
	   6B2     1.489117     9A1     1.501109     4B1     2.018795  
	   2A2     2.048569     7B2     2.115311    10A1     2.156968  
	  11A1     2.252569    12A1     2.569861     8B2     2.925369  
	   5B1     3.355877    13A1     3.470559     3A2     3.551089  
	   9B2     3.599255     6B1     3.765647    10B2     3.825961  
	  14A1     3.874337     4A2     3.935347     7B1     4.014930  
	  11B2     4.054988    15A1     4.134949     5A2     4.246185  
	  16A1     4.322900    12B2     4.477886     8B1     4.644656  
	  13B2     4.776103    17A1     5.011738    18A1     5.227286  
	  14B2     5.513933     9B1     5.971656    19A1     6.410725  
	  10B1     6.767254     6A2     6.843243    20A1     6.900082  
	  15B2     6.930047    11B1     7.006173    21A1     7.161382  
	   7A2     7.175682    22A1     7.427844    16B2     7.692765  
	  17B2     8.100521    23A1    12.194712  

	Final Occupation by Irrep:
	         A1    A2    B1    B2 
	DOCC [     3,    0,    1,    1 ]

  Energy converged.

  @RHF Final Energy:   -76.05099168367677

   => Energetics <=

    Nuclear Repulsion Energy =          8.8014655299720683
    One-Electron Energy =            -122.4153641905388952
    Two-Electron Energy =              37.5629069768900621
    DFT Functional Energy =             0.0000000000000000
    Empirical Dispersion Energy =       0.0000000000000000
    Total Energy =                    -76.0509916836767701

  ==> Properties <==

  Nuclear Dipole Moment: (a.u.)
     X:     0.0000      Y:     0.0000      Z:     1.0191

  Electronic Dipole Moment: (a.u.)
     X:     0.0000      Y:     0.0000      Z:    -0.2092

  Dipole Moment: (a.u.)
     X:     0.0000      Y:     0.0000      Z:     0.8099     Total:     0.8099

  Dipole Moment: (Debye)
     X:     0.0000      Y:     0.0000      Z:     2.0585     Total:     2.0585


  Saving occupied orbitals to File 180.

*** tstop() called on lawn-143-215-103-161.lawn.gatech.edu at Fri Apr 27 13:58:20 2012
Module time:
	user time   =       0.32 seconds =       0.01 minutes
	system time =       0.03 seconds =       0.00 minutes
	total time  =          0 seconds =       0.00 minutes
Total time:
	user time   =       0.32 seconds =       0.01 minutes
	system time =       0.03 seconds =       0.00 minutes
	total time  =          0 seconds =       0.00 minutes

*** tstart() called on lawn-143-215-103-161.lawn.gatech.edu
*** at Fri Apr 27 13:58:20 2012

 DERIV: Derivative code.
   by Justin Turney

  Cartesian Displacement SALCs
  By SALC:
  Number of SALCs: 3, nirreps: 1
  Project out translations: False
  Project out rotations: False
	irrep = 0, ncomponent = 1
		0: atom 0, direction z, coef 1.000000
	irrep = 0, ncomponent = 2
		0: atom 1, direction y, coef 0.707107
		1: atom 2, direction y, coef -0.707107
	irrep = 0, ncomponent = 2
		0: atom 1, direction z, coef 0.707107
		1: atom 2, direction z, coef 0.707107

  By Atomic Center:
  Number of atomic centers: 3
   Atomic Center 0:
	x component, size = 0
	y component, size = 0
	z component, size = 1
		0: salc 0, irrep 0, coef 1.000000
   Atomic Center 1:
	x component, size = 0
	y component, size = 1
		0: salc 1, irrep 0, coef 0.707107
	z component, size = 1
		0: salc 2, irrep 0, coef 0.707107
   Atomic Center 2:
	x component, size = 0
	y component, size = 1
		0: salc 1, irrep 0, coef -0.707107
	z component, size = 1
		0: salc 2, irrep 0, coef 0.707107

    Molecular point group: c2v

    Geometry (in Bohr), charge = 0, multiplicity = 1:

       Center              X                  Y                   Z       
    ------------   -----------------  -----------------  -----------------
           O          0.000000000000     0.000000000000    -0.129476890157
           H          0.000000000000    -1.494186750504     1.027446102928
           H          0.000000000000     1.494186750504     1.027446102928


  -Nuclear Repulsion Energy 1st Derivatives:
     Atom            X                  Y                   Z
    ------   -----------------  -----------------  -----------------
       1        0.000000000000     0.000000000000     2.743012762845
       2        0.000000000000     1.883302402599    -1.371506381423
       3        0.000000000000    -1.883302402599    -1.371506381423


  -One-electron contribution to gradient:
     Atom            X                  Y                   Z
    ------   -----------------  -----------------  -----------------
       1        0.000000000000     0.000000000000    -6.626766409010
       2        0.000000000000    -4.341840665451     3.313383204505
       3        0.000000000000     4.341840665451     3.313383204505


  -Lagrangian contribution to gradient:
     Atom            X                  Y                   Z
    ------   -----------------  -----------------  -----------------
       1        0.000000000000     0.000000000000     0.417102084049
       2        0.000000000000     0.242030145553    -0.208551042024
       3        0.000000000000    -0.242030145553    -0.208551042024


  -Two-electron contribution to gradient:
     Atom            X                  Y                   Z
    ------   -----------------  -----------------  -----------------
       1        0.000000000000     0.000000000000     3.398713044690
       2        0.000000000000     2.171101543005    -1.699356522345
       3        0.000000000000    -2.171101543005    -1.699356522345


  -Total gradient:
     Atom            X                  Y                   Z
    ------   -----------------  -----------------  -----------------
       1        0.000000000000     0.000000000000    -0.067938517427
       2        0.000000000000    -0.045406574294     0.033969258713
       3        0.000000000000     0.045406574294     0.033969258713


*** tstop() called on lawn-143-215-103-161.lawn.gatech.edu at Fri Apr 27 13:58:21 2012
Module time:
	user time   =       1.22 seconds =       0.02 minutes
	system time =       0.06 seconds =       0.00 minutes
	total time  =          1 seconds =       0.02 minutes
Total time:
	user time   =       1.54 seconds =       0.03 minutes
	system time =       0.09 seconds =       0.00 minutes
	total time  =          1 seconds =       0.02 minutes

			----------------------------------
			 OPTKING: for geometry optimizations  
			  - R.A. King,  Bethel University   
			------------------------------------

	Internal coordinates to be generated automatically.
	Detected frag with atoms:  1 2 3
	---Fragment 1 Bond Connectivity---
	 1 : 2 3
	 2 : 1
	 3 : 1

	---Fragment 1 Geometry and Gradient---
	 O           0.0000000000        0.0000000000       -0.1294768902
	 H           0.0000000000       -1.4941867505        1.0274461029
	 H           0.0000000000        1.4941867505        1.0274461029
	             0.0000000000        0.0000000000       -0.0679385174
	             0.0000000000       -0.0454065743        0.0339692587
	             0.0000000000        0.0454065743        0.0339692587

	Previous optimization step data not found.  Starting new optimization.

	---Fragment 1 Intrafragment Coordinates---
	 - Coordinate -           - BOHR/RAD -       - ANG/DEG -
	 R(1,2)           =         1.889726	       1.000000
	 R(1,3)           =         1.889726	       1.000000
	 B(2,1,3)         =         1.823869	     104.500000

	Current energy   :       -76.0509916837

	Generating empirical Hessian (Schlegel '84) for each fragment.
	Going to follow RFO solution 1.
	Projected energy change by RFO approximation:        -0.0065695880

	Back-transformation to cartesian coordinates...
	Successfully converged to displaced geometry.

	---Internal Coordinate Step in ANG or DEG, aJ/ANG or AJ/DEG ---
	 ----------------------------------------------------------------------
	 Coordinate             Previous        Force       Change         New 
	 ----------             --------       ------       ------       ------
	 R(1,2)          =      1.000000    -0.467128    -0.061230     0.938771
	 R(1,3)          =      1.000000    -0.467128    -0.061230     0.938771
	 B(2,1,3)        =    104.500000    -0.000135    -0.587552   103.912448
	 ----------------------------------------------------------------------

  ==> Convergence Check <==

  Measures of convergence in internal coordinates in au.
  Criteria marked as inactive (o), active & met (*), and active & unmet ( ).
  --------------------------------------------------------------------------------------------- ~
   Step     Total Energy     Delta E     MAX Force     RMS Force      MAX Disp      RMS Disp    ~
  --------------------------------------------------------------------------------------------- ~
    Convergence Criteria    1.00e-06 *    3.00e-04 *             o    1.20e-03 *             o  ~
  --------------------------------------------------------------------------------------------- ~
      1     -76.05099168   -7.61e+01      5.67e-02      4.63e-02 o    1.16e-01      9.47e-02 o  ~
  ---------------------------------------------------------------------------------------------

	Writing optimization data to binary file.
	Structure for next step:
	Cartesian Geometry (au)
	    O     0.0000000000   0.0000000000  -0.0870368589
	    H     0.0000000000  -1.3971112013   1.0062260873
	    H     0.0000000000   1.3971112013   1.0062260873
			--------------------------
			 OPTKING Finished Execution 
			--------------------------

*** tstart() called on lawn-143-215-103-161.lawn.gatech.edu
*** at Fri Apr 27 13:58:21 2012

	There are an even number of electrons - assuming singlet.
	Specify the multiplicity with the MULTP option in the
	input if this is incorrect


         ---------------------------------------------------------
                                   SCF
            by Justin Turney, Rob Parrish, and Andy Simmonett
                              RHF Reference
                        1 Threads,    250 MiB Core
         ---------------------------------------------------------

  ==> Geometry <==

    Molecular point group: c2v

    Geometry (in Angstrom), charge = 0, multiplicity = 1:

       Center              X                  Y                   Z       
    ------------   -----------------  -----------------  -----------------
           O          0.000000000000     0.000000000000    -0.064746093067
           H          0.000000000000    -0.739319405618     0.513783741029
           H          0.000000000000     0.739319405618     0.513783741029

  Running in c2v symmetry.

  Nuclear repulsion =    9.376950212108119

  Charge       = 0
  Multiplicity = 1
  Electrons    = 10
  Nalpha       = 5
  Nbeta        = 5

  ==> Algorithm <==

  SCF Algorithm Type is PK.
  DIIS enabled.
  MOM disabled.
  Fractional occupation disabled.
  Guess Type is CORE.
  Energy threshold   = 1.00e-10
  Density threshold  = 1.00e-10
  Integral threshold = 0.00e+00

  ==> Primary Basis <==

  Basis Set: CC-PVTZ
    Number of shells: 22
    Number of basis function: 58
    Number of Cartesian functions: 65
    Spherical Harmonics?: true
    Max angular momentum: 3

  ==> Pre-Iterations <==

  Minimum eigenvalue in the overlap matrix is 2.3492891913E-03.
  Using Symmetric Orthogonalization.
  SCF Guess: Core (One-Electron) Hamiltonian.

  Initial RHF energy:   -60.09604935791643

   -------------------------------------------------------
    Irrep   Nso     Nmo     Nalpha   Nbeta   Ndocc  Nsocc
   -------------------------------------------------------
     A1        23      23       3       3       3       0
     A2         7       7       0       0       0       0
     B1        11      11       1       1       1       0
     B2        17      17       1       1       1       0
   -------------------------------------------------------
    Total      58      58       5       5       5       0
   -------------------------------------------------------

  ==> Integral Setup <==

 MINTS: Wrapper to libmints.
   by Justin Turney

   Calculation information:
      Number of atoms:                   3
      Number of AO shells:              22
      Number of SO shells:              16
      Number of primitives:             42
      Number of atomic orbitals:        65
      Number of basis functions:        58

      Number of irreps:                  4
      Number of functions per irrep: [  23    7   11   17 ]

      Overlap, kinetic, potential, dipole, and quadrupole integrals
        stored in file 35.

      Computing two-electron integrals...done
      Computed 350015 non-zero two-electron integrals.
        Stored in file 33.

  ==> Iterations <==

                        Total Energy        Delta E     Density RMS

   @RHF iter   1:   -61.45143964716805   -1.35539e+00   0.00000e+00 
	Occupation by irrep:
	         A1    A2    B1    B2 
	DOCC [     3,    0,    0,    2 ]

   @RHF iter   2:   -66.80727356280173   -5.35583e+00   4.59812e-01 DIIS
	Occupation by irrep:
	         A1    A2    B1    B2 
	DOCC [     3,    0,    1,    1 ]

   @RHF iter   3:   -73.92547985959523   -7.11821e+00   4.56717e-01 DIIS
   @RHF iter   4:   -75.74008309406629   -1.81460e+00   1.59401e-02 DIIS
   @RHF iter   5:   -76.05571801347446   -3.15635e-01   9.78033e-03 DIIS
   @RHF iter   6:   -76.05720337709923   -1.48536e-03   1.31193e-03 DIIS
   @RHF iter   7:   -76.05761416990622   -4.10793e-04   3.25810e-04 DIIS
   @RHF iter   8:   -76.05763642133797   -2.22514e-05   1.10730e-04 DIIS
   @RHF iter   9:   -76.05763726146540   -8.40127e-07   3.34079e-05 DIIS
   @RHF iter  10:   -76.05763728293451   -2.14691e-08   4.51711e-06 DIIS
   @RHF iter  11:   -76.05763728332184   -3.87331e-10   5.78209e-07 DIIS
   @RHF iter  12:   -76.05763728333118   -9.33653e-12   9.70035e-08 DIIS
   @RHF iter  13:   -76.05763728333143   -2.55795e-13   1.50968e-08 DIIS
   @RHF iter  14:   -76.05763728333140    2.84217e-14   1.85988e-09 DIIS
   @RHF iter  15:   -76.05763728333132    8.52651e-14   5.70582e-10 DIIS
   @RHF iter  16:   -76.05763728333135   -2.84217e-14   1.03427e-10 DIIS

  ==> Post-Iterations <==

	Orbital Energies (a.u.)
	-----------------------

	Doubly Occupied:                                                      

	   1A1   -20.551698     2A1    -1.355940     1B2    -0.718854  
	   3A1    -0.582428     1B1    -0.506223  

	Virtual:                                                              

	   4A1     0.143992     2B2     0.205788     3B2     0.550797  
	   5A1     0.615206     6A1     0.664925     2B1     0.787002  
	   7A1     0.801253     4B2     0.806249     1A2     0.866278  
	   3B1     0.955207     8A1     1.119707     5B2     1.209735  
	   6B2     1.542399     9A1     1.596671     7B2     2.026168  
	   4B1     2.047337     2A2     2.071694    10A1     2.177309  
	  11A1     2.228529    12A1     2.598143     8B2     2.981433  
	   5B1     3.349591    13A1     3.498166     3A2     3.600110  
	   9B2     3.686676     6B1     3.814823    14A1     3.892808  
	  10B2     3.898741     4A2     3.977520     7B1     4.021730  
	  11B2     4.082108    15A1     4.216035     5A2     4.340327  
	  16A1     4.408164    12B2     4.642268     8B1     4.700009  
	  13B2     4.909065    17A1     5.233619    18A1     5.265280  
	  14B2     5.540948     9B1     6.092201    19A1     6.649246  
	  10B1     6.964241     6A2     6.964857    11B1     7.031370  
	  20A1     7.065661    15B2     7.115401    21A1     7.196310  
	   7A2     7.288414    22A1     7.469632    16B2     7.847780  
	  17B2     8.376623    23A1    13.185652  

	Final Occupation by Irrep:
	         A1    A2    B1    B2 
	DOCC [     3,    0,    1,    1 ]

  Energy converged.

  @RHF Final Energy:   -76.05763728333135

   => Energetics <=

    Nuclear Repulsion Energy =          9.3769502121081185
    One-Electron Energy =            -123.4388884947674683
    Two-Electron Energy =              38.0043009993280307
    DFT Functional Energy =             0.0000000000000000
    Empirical Dispersion Energy =       0.0000000000000000
    Total Energy =                    -76.0576372833313314

  ==> Properties <==

  Nuclear Dipole Moment: (a.u.)
     X:     0.0000      Y:     0.0000      Z:     0.9630

  Electronic Dipole Moment: (a.u.)
     X:     0.0000      Y:     0.0000      Z:    -0.1685

  Dipole Moment: (a.u.)
     X:     0.0000      Y:     0.0000      Z:     0.7945     Total:     0.7945

  Dipole Moment: (Debye)
     X:     0.0000      Y:     0.0000      Z:     2.0194     Total:     2.0194


  Saving occupied orbitals to File 180.

*** tstop() called on lawn-143-215-103-161.lawn.gatech.edu at Fri Apr 27 13:58:22 2012
Module time:
	user time   =       0.32 seconds =       0.01 minutes
	system time =       0.03 seconds =       0.00 minutes
	total time  =          1 seconds =       0.02 minutes
Total time:
	user time   =       1.86 seconds =       0.03 minutes
	system time =       0.12 seconds =       0.00 minutes
	total time  =          2 seconds =       0.03 minutes

*** tstart() called on lawn-143-215-103-161.lawn.gatech.edu
*** at Fri Apr 27 13:58:22 2012

 DERIV: Derivative code.
   by Justin Turney

  Cartesian Displacement SALCs
  By SALC:
  Number of SALCs: 3, nirreps: 1
  Project out translations: False
  Project out rotations: False
	irrep = 0, ncomponent = 1
		0: atom 0, direction z, coef 1.000000
	irrep = 0, ncomponent = 2
		0: atom 1, direction y, coef 0.707107
		1: atom 2, direction y, coef -0.707107
	irrep = 0, ncomponent = 2
		0: atom 1, direction z, coef 0.707107
		1: atom 2, direction z, coef 0.707107

  By Atomic Center:
  Number of atomic centers: 3
   Atomic Center 0:
	x component, size = 0
	y component, size = 0
	z component, size = 1
		0: salc 0, irrep 0, coef 1.000000
   Atomic Center 1:
	x component, size = 0
	y component, size = 1
		0: salc 1, irrep 0, coef 0.707107
	z component, size = 1
		0: salc 2, irrep 0, coef 0.707107
   Atomic Center 2:
	x component, size = 0
	y component, size = 1
		0: salc 1, irrep 0, coef -0.707107
	z component, size = 1
		0: salc 2, irrep 0, coef 0.707107

    Molecular point group: c2v

    Geometry (in Bohr), charge = 0, multiplicity = 1:

       Center              X                  Y                   Z       
    ------------   -----------------  -----------------  -----------------
           O          0.000000000000     0.000000000000    -0.122352384071
           H          0.000000000000    -1.397111201346     0.970910562074
           H          0.000000000000     1.397111201346     0.970910562074


  -Nuclear Repulsion Energy 1st Derivatives:
     Atom            X                  Y                   Z
    ------   -----------------  -----------------  -----------------
       1        0.000000000000     0.000000000000     3.133067679867
       2        0.000000000000     2.129996311035    -1.566533839934
       3        0.000000000000    -2.129996311035    -1.566533839934


  -One-electron contribution to gradient:
     Atom            X                  Y                   Z
    ------   -----------------  -----------------  -----------------
       1        0.000000000000     0.000000000000    -7.277953285320
       2        0.000000000000    -4.557983500682     3.638976642660
       3        0.000000000000     4.557983500682     3.638976642660


  -Lagrangian contribution to gradient:
     Atom            X                  Y                   Z
    ------   -----------------  -----------------  -----------------
       1        0.000000000000     0.000000000000     0.444539507611
       2        0.000000000000     0.234774280313    -0.222269753805
       3        0.000000000000    -0.234774280313    -0.222269753805


  -Two-electron contribution to gradient:
     Atom            X                  Y                   Z
    ------   -----------------  -----------------  -----------------
       1        0.000000000000     0.000000000000     3.698467111503
       2        0.000000000000     2.198124192600    -1.849233555752
       3        0.000000000000    -2.198124192600    -1.849233555752


  -Total gradient:
     Atom            X                  Y                   Z
    ------   -----------------  -----------------  -----------------
       1        0.000000000000     0.000000000000    -0.001878986339
       2        0.000000000000     0.004911283266     0.000939493169
       3        0.000000000000    -0.004911283266     0.000939493169


*** tstop() called on lawn-143-215-103-161.lawn.gatech.edu at Fri Apr 27 13:58:23 2012
Module time:
	user time   =       1.23 seconds =       0.02 minutes
	system time =       0.05 seconds =       0.00 minutes
	total time  =          1 seconds =       0.02 minutes
Total time:
	user time   =       3.09 seconds =       0.05 minutes
	system time =       0.17 seconds =       0.00 minutes
	total time  =          3 seconds =       0.05 minutes

			----------------------------------
			 OPTKING: for geometry optimizations  
			  - R.A. King,  Bethel University   
			------------------------------------

	Previous internal coordinate definitions found.
	---Fragment 1 Geometry and Gradient---
	 O           0.0000000000        0.0000000000       -0.1223523841
	 H           0.0000000000       -1.3971112013        0.9709105621
	 H           0.0000000000        1.3971112013        0.9709105621
	             0.0000000000        0.0000000000       -0.0018789863
	             0.0000000000        0.0049112833        0.0009394932
	             0.0000000000       -0.0049112833        0.0009394932

	---Fragment 1 Intrafragment Coordinates---
	 - Coordinate -           - BOHR/RAD -       - ANG/DEG -
	 R(1,2)           =         1.774019	       0.938771
	 R(1,3)           =         1.774019	       0.938771
	 B(2,1,3)         =         1.813614	     103.912448

	Current energy   :       -76.0576372833

	Energy change for the previous step:
		Projected    :        -0.0065695880
		Actual       :        -0.0066455997
	Energy ratio indicates good step: Trust radius increased to 8.000e-01.


	Performing BFGS update with previous 1 gradient(s).
	Going to follow RFO solution 1.
	Projected energy change by RFO approximation:        -0.0001439050

	Back-transformation to cartesian coordinates...
	Successfully converged to displaced geometry.

	---Internal Coordinate Step in ANG or DEG, aJ/ANG or AJ/DEG ---
	 ----------------------------------------------------------------------
	 Coordinate             Previous        Force       Change         New 
	 ----------             --------       ------       ------       ------
	 R(1,2)          =      0.938771     0.027096     0.002204     0.940974
	 R(1,3)          =      0.938771     0.027096     0.002204     0.940974
	 B(2,1,3)        =    103.912448     0.000508     2.233036   106.145483
	 ----------------------------------------------------------------------

  ==> Convergence Check <==

  Measures of convergence in internal coordinates in au.
  Criteria marked as inactive (o), active & met (*), and active & unmet ( ).
  ---------------------------------------------------------------------------------------------
   Step     Total Energy     Delta E     MAX Force     RMS Force      MAX Disp      RMS Disp   
  ---------------------------------------------------------------------------------------------
    Convergence Criteria    1.00e-06 *    3.00e-04 *             o    1.20e-03 *             o
  ---------------------------------------------------------------------------------------------
      2     -76.05763728   -6.65e-03      6.68e-03      4.70e-03 o    3.90e-02      2.28e-02 o  ~
  ---------------------------------------------------------------------------------------------

	Writing optimization data to binary file.
	Structure for next step:
	Cartesian Geometry (au)
	    O     0.0000000000   0.0000000000  -0.1057327880
	    H     0.0000000000  -1.4214777433   0.9626007640
	    H     0.0000000000   1.4214777433   0.9626007640
			--------------------------
			 OPTKING Finished Execution 
			--------------------------

*** tstart() called on lawn-143-215-103-161.lawn.gatech.edu
*** at Fri Apr 27 13:58:23 2012

	There are an even number of electrons - assuming singlet.
	Specify the multiplicity with the MULTP option in the
	input if this is incorrect


         ---------------------------------------------------------
                                   SCF
            by Justin Turney, Rob Parrish, and Andy Simmonett
                              RHF Reference
                        1 Threads,    250 MiB Core
         ---------------------------------------------------------

  ==> Geometry <==

    Molecular point group: c2v

    Geometry (in Angstrom), charge = 0, multiplicity = 1:

       Center              X                  Y                   Z       
    ------------   -----------------  -----------------  -----------------
           O          0.000000000000     0.000000000000    -0.063269704536
           H          0.000000000000    -0.752213624271     0.502068062337
           H          0.000000000000     0.752213624271     0.502068062337

  Running in c2v symmetry.

  Nuclear repulsion =    9.349694558225670

  Charge       = 0
  Multiplicity = 1
  Electrons    = 10
  Nalpha       = 5
  Nbeta        = 5

  ==> Algorithm <==

  SCF Algorithm Type is PK.
  DIIS enabled.
  MOM disabled.
  Fractional occupation disabled.
  Guess Type is CORE.
  Energy threshold   = 1.00e-10
  Density threshold  = 1.00e-10
  Integral threshold = 0.00e+00

  ==> Primary Basis <==

  Basis Set: CC-PVTZ
    Number of shells: 22
    Number of basis function: 58
    Number of Cartesian functions: 65
    Spherical Harmonics?: true
    Max angular momentum: 3

  ==> Pre-Iterations <==

  Minimum eigenvalue in the overlap matrix is 2.3490376448E-03.
  Using Symmetric Orthogonalization.
  SCF Guess: Core (One-Electron) Hamiltonian.

  Initial RHF energy:   -60.10940593119985

   -------------------------------------------------------
    Irrep   Nso     Nmo     Nalpha   Nbeta   Ndocc  Nsocc
   -------------------------------------------------------
     A1        23      23       3       3       3       0
     A2         7       7       0       0       0       0
     B1        11      11       1       1       1       0
     B2        17      17       1       1       1       0
   -------------------------------------------------------
    Total      58      58       5       5       5       0
   -------------------------------------------------------

  ==> Integral Setup <==

 MINTS: Wrapper to libmints.
   by Justin Turney

   Calculation information:
      Number of atoms:                   3
      Number of AO shells:              22
      Number of SO shells:              16
      Number of primitives:             42
      Number of atomic orbitals:        65
      Number of basis functions:        58

      Number of irreps:                  4
      Number of functions per irrep: [  23    7   11   17 ]

      Overlap, kinetic, potential, dipole, and quadrupole integrals
        stored in file 35.

      Computing two-electron integrals...done
      Computed 350015 non-zero two-electron integrals.
        Stored in file 33.

  ==> Iterations <==

                        Total Energy        Delta E     Density RMS

   @RHF iter   1:   -61.44980244410092   -1.34040e+00   0.00000e+00 
	Occupation by irrep:
	         A1    A2    B1    B2 
	DOCC [     3,    0,    0,    2 ]

   @RHF iter   2:   -66.84059312145399   -5.39079e+00   4.60107e-01 DIIS
	Occupation by irrep:
	         A1    A2    B1    B2 
	DOCC [     3,    0,    1,    1 ]

   @RHF iter   3:   -73.93122907381758   -7.09064e+00   4.57014e-01 DIIS
   @RHF iter   4:   -75.74156544637093   -1.81034e+00   1.59155e-02 DIIS
   @RHF iter   5:   -76.05588839865132   -3.14323e-01   9.76787e-03 DIIS
   @RHF iter   6:   -76.05733340322588   -1.44500e-03   1.29823e-03 DIIS
   @RHF iter   7:   -76.05774514108057   -4.11738e-04   3.23732e-04 DIIS
   @RHF iter   8:   -76.05776784081178   -2.26997e-05   1.11819e-04 DIIS
   @RHF iter   9:   -76.05776871791259   -8.77101e-07   3.44770e-05 DIIS
   @RHF iter  10:   -76.05776873974277   -2.18302e-08   4.56856e-06 DIIS
   @RHF iter  11:   -76.05776874015501   -4.12243e-10   5.90969e-07 DIIS
   @RHF iter  12:   -76.05776874016468   -9.66338e-12   1.00066e-07 DIIS
   @RHF iter  13:   -76.05776874016502   -3.41061e-13   1.51167e-08 DIIS
   @RHF iter  14:   -76.05776874016505   -2.84217e-14   1.84511e-09 DIIS
   @RHF iter  15:   -76.05776874016495    9.94760e-14   6.05565e-10 DIIS
   @RHF iter  16:   -76.05776874016500   -5.68434e-14   1.07210e-10 DIIS

  ==> Post-Iterations <==

	Orbital Energies (a.u.)
	-----------------------

	Doubly Occupied:                                                      

	   1A1   -20.551019     2A1    -1.352988     1B2    -0.722005  
	   3A1    -0.577533     1B1    -0.505307  

	Virtual:                                                              

	   4A1     0.144216     2B2     0.205091     3B2     0.553717  
	   5A1     0.605692     6A1     0.666732     2B1     0.787428  
	   4B2     0.804792     7A1     0.812025     1A2     0.861072  
	   3B1     0.964401     8A1     1.118638     5B2     1.201904  
	   6B2     1.546187     9A1     1.588193     7B2     2.031362  
	   4B1     2.035774     2A2     2.075730    10A1     2.170710  
	  11A1     2.231783    12A1     2.610541     8B2     2.972370  
	   5B1     3.371927    13A1     3.508158     3A2     3.580475  
	   9B2     3.668005     6B1     3.816324    14A1     3.886323  
	  10B2     3.899730     4A2     3.966823     7B1     4.026161  
	  11B2     4.087402    15A1     4.211517     5A2     4.349239  
	  16A1     4.429131    12B2     4.594899     8B1     4.701822  
	  13B2     4.909261    17A1     5.208184    18A1     5.268436  
	  14B2     5.544973     9B1     6.076738    19A1     6.608925  
	  10B1     6.958226     6A2     6.968073    11B1     7.033326  
	  20A1     7.056258    15B2     7.156210    21A1     7.169012  
	   7A2     7.273381    22A1     7.483131    16B2     7.832576  
	  17B2     8.348633    23A1    13.160235  

	Final Occupation by Irrep:
	         A1    A2    B1    B2 
	DOCC [     3,    0,    1,    1 ]

  Energy converged.

  @RHF Final Energy:   -76.05776874016500

   => Energetics <=

    Nuclear Repulsion Energy =          9.3496945582256696
    One-Electron Energy =            -123.3972214507019629
    Two-Electron Energy =              37.9897581523112819
    DFT Functional Energy =             0.0000000000000000
    Empirical Dispersion Energy =       0.0000000000000000
    Total Energy =                    -76.0577687401650167

  ==> Properties <==

  Nuclear Dipole Moment: (a.u.)
     X:     0.0000      Y:     0.0000      Z:     0.9410

  Electronic Dipole Moment: (a.u.)
     X:     0.0000      Y:     0.0000      Z:    -0.1598

  Dipole Moment: (a.u.)
     X:     0.0000      Y:     0.0000      Z:     0.7813     Total:     0.7813

  Dipole Moment: (Debye)
     X:     0.0000      Y:     0.0000      Z:     1.9858     Total:     1.9858


  Saving occupied orbitals to File 180.

*** tstop() called on lawn-143-215-103-161.lawn.gatech.edu at Fri Apr 27 13:58:24 2012
Module time:
	user time   =       0.32 seconds =       0.01 minutes
	system time =       0.03 seconds =       0.00 minutes
	total time  =          1 seconds =       0.02 minutes
Total time:
	user time   =       3.41 seconds =       0.06 minutes
	system time =       0.20 seconds =       0.00 minutes
	total time  =          4 seconds =       0.07 minutes

*** tstart() called on lawn-143-215-103-161.lawn.gatech.edu
*** at Fri Apr 27 13:58:24 2012

 DERIV: Derivative code.
   by Justin Turney

  Cartesian Displacement SALCs
  By SALC:
  Number of SALCs: 3, nirreps: 1
  Project out translations: False
  Project out rotations: False
	irrep = 0, ncomponent = 1
		0: atom 0, direction z, coef 1.000000
	irrep = 0, ncomponent = 2
		0: atom 1, direction y, coef 0.707107
		1: atom 2, direction y, coef -0.707107
	irrep = 0, ncomponent = 2
		0: atom 1, direction z, coef 0.707107
		1: atom 2, direction z, coef 0.707107

  By Atomic Center:
  Number of atomic centers: 3
   Atomic Center 0:
	x component, size = 0
	y component, size = 0
	z component, size = 1
		0: salc 0, irrep 0, coef 1.000000
   Atomic Center 1:
	x component, size = 0
	y component, size = 1
		0: salc 1, irrep 0, coef 0.707107
	z component, size = 1
		0: salc 2, irrep 0, coef 0.707107
   Atomic Center 2:
	x component, size = 0
	y component, size = 1
		0: salc 1, irrep 0, coef -0.707107
	z component, size = 1
		0: salc 2, irrep 0, coef 0.707107

    Molecular point group: c2v

    Geometry (in Bohr), charge = 0, multiplicity = 1:

       Center              X                  Y                   Z       
    ------------   -----------------  -----------------  -----------------
           O          0.000000000000     0.000000000000    -0.119562414081
           H          0.000000000000    -1.421477743297     0.948771137885
           H          0.000000000000     1.421477743297     0.948771137885


  -Nuclear Repulsion Energy 1st Derivatives:
     Atom            X                  Y                   Z
    ------   -----------------  -----------------  -----------------
       1        0.000000000000     0.000000000000     3.040166225397
       2        0.000000000000     2.146281573825    -1.520083112699
       3        0.000000000000    -2.146281573825    -1.520083112699


  -One-electron contribution to gradient:
     Atom            X                  Y                   Z
    ------   -----------------  -----------------  -----------------
       1        0.000000000000     0.000000000000    -7.040244048682
       2        0.000000000000    -4.651501802279     3.520122024341
       3        0.000000000000     4.651501802279     3.520122024341


  -Lagrangian contribution to gradient:
     Atom            X                  Y                   Z
    ------   -----------------  -----------------  -----------------
       1        0.000000000000     0.000000000000     0.432000467546
       2        0.000000000000     0.242139548964    -0.216000233773
       3        0.000000000000    -0.242139548964    -0.216000233773


  -Two-electron contribution to gradient:
     Atom            X                  Y                   Z
    ------   -----------------  -----------------  -----------------
       1        0.000000000000     0.000000000000     3.567892339147
       2        0.000000000000     2.262509360925    -1.783946169574
       3        0.000000000000    -2.262509360925    -1.783946169574


  -Total gradient:
     Atom            X                  Y                   Z
    ------   -----------------  -----------------  -----------------
       1        0.000000000000     0.000000000000    -0.000185016592
       2        0.000000000000    -0.000571318566     0.000092508296
       3        0.000000000000     0.000571318566     0.000092508296


*** tstop() called on lawn-143-215-103-161.lawn.gatech.edu at Fri Apr 27 13:58:25 2012
Module time:
	user time   =       1.23 seconds =       0.02 minutes
	system time =       0.05 seconds =       0.00 minutes
	total time  =          1 seconds =       0.02 minutes
Total time:
	user time   =       4.64 seconds =       0.08 minutes
	system time =       0.25 seconds =       0.00 minutes
	total time  =          5 seconds =       0.08 minutes

			----------------------------------
			 OPTKING: for geometry optimizations  
			  - R.A. King,  Bethel University   
			------------------------------------

	Previous internal coordinate definitions found.
	---Fragment 1 Geometry and Gradient---
	 O           0.0000000000        0.0000000000       -0.1195624141
	 H           0.0000000000       -1.4214777433        0.9487711379
	 H           0.0000000000        1.4214777433        0.9487711379
	             0.0000000000        0.0000000000       -0.0001850166
	             0.0000000000       -0.0005713186        0.0000925083
	             0.0000000000        0.0005713186        0.0000925083

	---Fragment 1 Intrafragment Coordinates---
	 - Coordinate -           - BOHR/RAD -       - ANG/DEG -
	 R(1,2)           =         1.778183	       0.940974
	 R(1,3)           =         1.778183	       0.940974
	 B(2,1,3)         =         1.852588	     106.145483

	Current energy   :       -76.0577687402

	Energy change for the previous step:
		Projected    :        -0.0001439050
		Actual       :        -0.0001314568
	Energy ratio indicates good step: Trust radius increased to 1.000e+00.


	Performing BFGS update with previous 1 gradient(s).
	Going to follow RFO solution 1.
	Projected energy change by RFO approximation:        -0.0000009679

	Back-transformation to cartesian coordinates...
	Successfully converged to displaced geometry.

	---Internal Coordinate Step in ANG or DEG, aJ/ANG or AJ/DEG ---
	 ----------------------------------------------------------------------
	 Coordinate             Previous        Force       Change         New 
	 ----------             --------       ------       ------       ------
	 R(1,2)          =      0.940974    -0.004221    -0.000413     0.940561
	 R(1,3)          =      0.940974    -0.004221    -0.000413     0.940561
	 B(2,1,3)        =    106.145483    -0.000036    -0.136035   106.009449
	 ----------------------------------------------------------------------

  ==> Convergence Check <==

  Measures of convergence in internal coordinates in au.
  Criteria marked as inactive (o), active & met (*), and active & unmet ( ).
  ---------------------------------------------------------------------------------------------
   Step     Total Energy     Delta E     MAX Force     RMS Force      MAX Disp      RMS Disp   
  ---------------------------------------------------------------------------------------------
    Convergence Criteria    1.00e-06 *    3.00e-04 *             o    1.20e-03 *             o
  ---------------------------------------------------------------------------------------------
      3     -76.05776874   -1.31e-04      5.12e-04      5.01e-04 o    2.37e-03      1.51e-03 o  ~
  ---------------------------------------------------------------------------------------------

	Writing optimization data to binary file.
	Structure for next step:
	Cartesian Geometry (au)
	    O     0.0000000000   0.0000000000  -0.1203740831
	    H     0.0000000000  -1.4195857190   0.9491769724
	    H     0.0000000000   1.4195857190   0.9491769724
			--------------------------
			 OPTKING Finished Execution 
			--------------------------

*** tstart() called on lawn-143-215-103-161.lawn.gatech.edu
*** at Fri Apr 27 13:58:25 2012

	There are an even number of electrons - assuming singlet.
	Specify the multiplicity with the MULTP option in the
	input if this is incorrect


         ---------------------------------------------------------
                                   SCF
            by Justin Turney, Rob Parrish, and Andy Simmonett
                              RHF Reference
                        1 Threads,    250 MiB Core
         ---------------------------------------------------------

  ==> Geometry <==

    Molecular point group: c2v

    Geometry (in Angstrom), charge = 0, multiplicity = 1:

       Center              X                  Y                   Z       
    ------------   -----------------  -----------------  -----------------
           O          0.000000000000     0.000000000000    -0.063341808508
           H          0.000000000000    -0.751212408147     0.502640233519
           H          0.000000000000     0.751212408147     0.502640233519

  Running in c2v symmetry.

  Nuclear repulsion =    9.354110796101471

  Charge       = 0
  Multiplicity = 1
  Electrons    = 10
  Nalpha       = 5
  Nbeta        = 5

  ==> Algorithm <==

  SCF Algorithm Type is PK.
  DIIS enabled.
  MOM disabled.
  Fractional occupation disabled.
  Guess Type is CORE.
  Energy threshold   = 1.00e-10
  Density threshold  = 1.00e-10
  Integral threshold = 0.00e+00

  ==> Primary Basis <==

  Basis Set: CC-PVTZ
    Number of shells: 22
    Number of basis function: 58
    Number of Cartesian functions: 65
    Spherical Harmonics?: true
    Max angular momentum: 3

  ==> Pre-Iterations <==

  Minimum eigenvalue in the overlap matrix is 2.3469822526E-03.
  Using Symmetric Orthogonalization.
  SCF Guess: Core (One-Electron) Hamiltonian.

  Initial RHF energy:   -60.10752444182987

   -------------------------------------------------------
    Irrep   Nso     Nmo     Nalpha   Nbeta   Ndocc  Nsocc
   -------------------------------------------------------
     A1        23      23       3       3       3       0
     A2         7       7       0       0       0       0
     B1        11      11       1       1       1       0
     B2        17      17       1       1       1       0
   -------------------------------------------------------
    Total      58      58       5       5       5       0
   -------------------------------------------------------

  ==> Integral Setup <==

 MINTS: Wrapper to libmints.
   by Justin Turney

   Calculation information:
      Number of atoms:                   3
      Number of AO shells:              22
      Number of SO shells:              16
      Number of primitives:             42
      Number of atomic orbitals:        65
      Number of basis functions:        58

      Number of irreps:                  4
      Number of functions per irrep: [  23    7   11   17 ]

      Overlap, kinetic, potential, dipole, and quadrupole integrals
        stored in file 35.

      Computing two-electron integrals...done
      Computed 350015 non-zero two-electron integrals.
        Stored in file 33.

  ==> Iterations <==

                        Total Energy        Delta E     Density RMS

   @RHF iter   1:   -61.45056670337153   -1.34304e+00   0.00000e+00 
	Occupation by irrep:
	         A1    A2    B1    B2 
	DOCC [     3,    0,    0,    2 ]

   @RHF iter   2:   -66.84011165862645   -5.38954e+00   4.60387e-01 DIIS
	Occupation by irrep:
	         A1    A2    B1    B2 
	DOCC [     3,    0,    1,    1 ]

   @RHF iter   3:   -73.93227871446368   -7.09217e+00   4.57296e-01 DIIS
   @RHF iter   4:   -75.74189883676357   -1.80962e+00   1.59155e-02 DIIS
   @RHF iter   5:   -76.05589110917575   -3.13992e-01   9.76456e-03 DIIS
   @RHF iter   6:   -76.05733507170640   -1.44396e-03   1.29792e-03 DIIS
   @RHF iter   7:   -76.05774617214477   -4.11100e-04   3.23592e-04 DIIS
   @RHF iter   8:   -76.05776880353513   -2.26314e-05   1.11580e-04 DIIS
   @RHF iter   9:   -76.05776967508804   -8.71553e-07   3.43548e-05 DIIS
   @RHF iter  10:   -76.05776969679397   -2.17059e-08   4.55460e-06 DIIS
   @RHF iter  11:   -76.05776969720350   -4.09528e-10   5.88968e-07 DIIS
   @RHF iter  12:   -76.05776969721322   -9.72022e-12   9.97187e-08 DIIS
   @RHF iter  13:   -76.05776969721347   -2.55795e-13   1.50529e-08 DIIS
   @RHF iter  14:   -76.05776969721346    1.42109e-14   1.84332e-09 DIIS
   @RHF iter  15:   -76.05776969721349   -2.84217e-14   6.03525e-10 DIIS
   @RHF iter  16:   -76.05776969721343    5.68434e-14   1.06756e-10 DIIS

  ==> Post-Iterations <==

	Orbital Energies (a.u.)
	-----------------------

	Doubly Occupied:                                                      

	   1A1   -20.551012     2A1    -1.353316     1B2    -0.721976  
	   3A1    -0.577883     1B1    -0.505388  

	Virtual:                                                              

	   4A1     0.144232     2B2     0.205156     3B2     0.553645  
	   5A1     0.606437     6A1     0.666568     2B1     0.787394  
	   4B2     0.804896     7A1     0.811389     1A2     0.861444  
	   3B1     0.963881     8A1     1.118518     5B2     1.202544  
	   6B2     1.546206     9A1     1.589142     7B2     2.030658  
	   4B1     2.036605     2A2     2.075583    10A1     2.171277  
	  11A1     2.231547    12A1     2.609769     8B2     2.973170  
	   5B1     3.370607    13A1     3.507742     3A2     3.581853  
	   9B2     3.669564     6B1     3.816469    14A1     3.886725  
	  10B2     3.899922     4A2     3.967655     7B1     4.025930  
	  11B2     4.087156    15A1     4.212154     5A2     4.349073  
	  16A1     4.428260    12B2     4.598443     8B1     4.701979  
	  13B2     4.909914    17A1     5.210886    18A1     5.268399  
	  14B2     5.544898     9B1     6.078364    19A1     6.612630  
	  10B1     6.958760     6A2     6.968146    11B1     7.033983  
	  20A1     7.057446    15B2     7.154755    21A1     7.170975  
	   7A2     7.275188    22A1     7.482459    16B2     7.834340  
	  17B2     8.351587    23A1    13.166519  

	Final Occupation by Irrep:
	         A1    A2    B1    B2 
	DOCC [     3,    0,    1,    1 ]

  Energy converged.

  @RHF Final Energy:   -76.05776969721343

   => Energetics <=

    Nuclear Repulsion Energy =          9.3541107961014713
    One-Electron Energy =            -123.4046123721218891
    Two-Electron Energy =              37.9927318788069996
    DFT Functional Energy =             0.0000000000000000
    Empirical Dispersion Energy =       0.0000000000000000
    Total Energy =                    -76.0577696972134163

  ==> Properties <==

  Nuclear Dipole Moment: (a.u.)
     X:     0.0000      Y:     0.0000      Z:     0.9421

  Electronic Dipole Moment: (a.u.)
     X:     0.0000      Y:     0.0000      Z:    -0.1601

  Dipole Moment: (a.u.)
     X:     0.0000      Y:     0.0000      Z:     0.7820     Total:     0.7820

  Dipole Moment: (Debye)
     X:     0.0000      Y:     0.0000      Z:     1.9876     Total:     1.9876


  Saving occupied orbitals to File 180.

*** tstop() called on lawn-143-215-103-161.lawn.gatech.edu at Fri Apr 27 13:58:26 2012
Module time:
	user time   =       0.32 seconds =       0.01 minutes
	system time =       0.03 seconds =       0.00 minutes
	total time  =          1 seconds =       0.02 minutes
Total time:
	user time   =       4.97 seconds =       0.08 minutes
	system time =       0.28 seconds =       0.00 minutes
	total time  =          6 seconds =       0.10 minutes

*** tstart() called on lawn-143-215-103-161.lawn.gatech.edu
*** at Fri Apr 27 13:58:26 2012

 DERIV: Derivative code.
   by Justin Turney

  Cartesian Displacement SALCs
  By SALC:
  Number of SALCs: 3, nirreps: 1
  Project out translations: False
  Project out rotations: False
	irrep = 0, ncomponent = 1
		0: atom 0, direction z, coef 1.000000
	irrep = 0, ncomponent = 2
		0: atom 1, direction y, coef 0.707107
		1: atom 2, direction y, coef -0.707107
	irrep = 0, ncomponent = 2
		0: atom 1, direction z, coef 0.707107
		1: atom 2, direction z, coef 0.707107

  By Atomic Center:
  Number of atomic centers: 3
   Atomic Center 0:
	x component, size = 0
	y component, size = 0
	z component, size = 1
		0: salc 0, irrep 0, coef 1.000000
   Atomic Center 1:
	x component, size = 0
	y component, size = 1
		0: salc 1, irrep 0, coef 0.707107
	z component, size = 1
		0: salc 2, irrep 0, coef 0.707107
   Atomic Center 2:
	x component, size = 0
	y component, size = 1
		0: salc 1, irrep 0, coef -0.707107
	z component, size = 1
		0: salc 2, irrep 0, coef 0.707107

    Molecular point group: c2v

    Geometry (in Bohr), charge = 0, multiplicity = 1:

       Center              X                  Y                   Z       
    ------------   -----------------  -----------------  -----------------
           O          0.000000000000     0.000000000000    -0.119698670842
           H          0.000000000000    -1.419585719023     0.949852384720
           H          0.000000000000     1.419585719023     0.949852384720


  -Nuclear Repulsion Energy 1st Derivatives:
     Atom            X                  Y                   Z
    ------   -----------------  -----------------  -----------------
       1        0.000000000000     0.000000000000     3.047638396891
       2        0.000000000000     2.146579051222    -1.523819198446
       3        0.000000000000    -2.146579051222    -1.523819198446


  -One-electron contribution to gradient:
     Atom            X                  Y                   Z
    ------   -----------------  -----------------  -----------------
       1        0.000000000000     0.000000000000    -7.057583793692
       2        0.000000000000    -4.646960446271     3.528791896846
       3        0.000000000000     4.646960446271     3.528791896846


  -Lagrangian contribution to gradient:
     Atom            X                  Y                   Z
    ------   -----------------  -----------------  -----------------
       1        0.000000000000     0.000000000000     0.432871697866
       2        0.000000000000     0.241640576630    -0.216435848933
       3        0.000000000000    -0.241640576630    -0.216435848933


  -Two-electron contribution to gradient:
     Atom            X                  Y                   Z
    ------   -----------------  -----------------  -----------------
       1        0.000000000000     0.000000000000     3.577143851614
       2        0.000000000000     2.258769356140    -1.788571925807
       3        0.000000000000    -2.258769356140    -1.788571925807


  -Total gradient:
     Atom            X                  Y                   Z
    ------   -----------------  -----------------  -----------------
       1        0.000000000000     0.000000000000     0.000070152679
       2        0.000000000000     0.000028537721    -0.000035076340
       3        0.000000000000    -0.000028537721    -0.000035076340


*** tstop() called on lawn-143-215-103-161.lawn.gatech.edu at Fri Apr 27 13:58:27 2012
Module time:
	user time   =       1.23 seconds =       0.02 minutes
	system time =       0.05 seconds =       0.00 minutes
	total time  =          1 seconds =       0.02 minutes
Total time:
	user time   =       6.20 seconds =       0.10 minutes
	system time =       0.33 seconds =       0.01 minutes
	total time  =          7 seconds =       0.12 minutes

			----------------------------------
			 OPTKING: for geometry optimizations  
			  - R.A. King,  Bethel University   
			------------------------------------

	Previous internal coordinate definitions found.
	---Fragment 1 Geometry and Gradient---
	 O           0.0000000000        0.0000000000       -0.1196986708
	 H           0.0000000000       -1.4195857190        0.9498523847
	 H           0.0000000000        1.4195857190        0.9498523847
	             0.0000000000        0.0000000000        0.0000701527
	             0.0000000000        0.0000285377       -0.0000350763
	             0.0000000000       -0.0000285377       -0.0000350763

	---Fragment 1 Intrafragment Coordinates---
	 - Coordinate -           - BOHR/RAD -       - ANG/DEG -
	 R(1,2)           =         1.777403	       0.940561
	 R(1,3)           =         1.777403	       0.940561
	 B(2,1,3)         =         1.850214	     106.009449

	Current energy   :       -76.0577696972

	Energy change for the previous step:
		Projected    :        -0.0000009679
		Actual       :        -0.0000009570

	Performing BFGS update with previous 1 gradient(s).
	Going to follow RFO solution 1.
	Projected energy change by RFO approximation:        -0.0000000055

	Back-transformation to cartesian coordinates...
	Successfully converged to displaced geometry.

	---Internal Coordinate Step in ANG or DEG, aJ/ANG or AJ/DEG ---
	 ----------------------------------------------------------------------
	 Coordinate             Previous        Force       Change         New 
	 ----------             --------       ------       ------       ------
	 R(1,2)          =      0.940561     0.000362     0.000047     0.940608
	 R(1,3)          =      0.940561     0.000362     0.000047     0.940608
	 B(2,1,3)        =    106.009449    -0.000001    -0.009447   106.000002
	 ----------------------------------------------------------------------

  ==> Convergence Check <==

  Measures of convergence in internal coordinates in au.
  Criteria marked as inactive (o), active & met (*), and active & unmet ( ).
  ---------------------------------------------------------------------------------------------
   Step     Total Energy     Delta E     MAX Force     RMS Force      MAX Disp      RMS Disp   
  ---------------------------------------------------------------------------------------------
    Convergence Criteria    1.00e-06 *    3.00e-04 *             o    1.20e-03 *             o
  ---------------------------------------------------------------------------------------------
      4     -76.05776970   -9.57e-07 *    4.39e-05 *    3.75e-05 o    1.65e-04 *    1.20e-04 o  ~
  ---------------------------------------------------------------------------------------------


  **** Optimization is complete! ****

  ==> Optimization Summary <==

  Measures of convergence in internal coordinates in au.
  --------------------------------------------------------------------------------------------------------------- ~
   Step         Total Energy             Delta E       MAX Force       RMS Force        MAX Disp        RMS Disp  ~
  --------------------------------------------------------------------------------------------------------------- ~
      1     -76.050991683677    -76.050991683677      0.05669907      0.04630595      0.11570709      0.09465977  ~
      2     -76.057637283331     -0.006645599655      0.00668190      0.00470039      0.03897382      0.02275697  ~
      3     -76.057768740165     -0.000131456834      0.00051229      0.00050139      0.00237425      0.00151141  ~
      4     -76.057769697213     -0.000000957048      0.00004390      0.00003753      0.00016487      0.00011953  ~
  --------------------------------------------------------------------------------------------------------------- ~

	Writing optimization data to binary file.
	Final energy is    -76.0577696972134
	Final (previous) structure:
	Cartesian Geometry (au)
	    O     0.0000000000   0.0000000000  -0.1196986708
	    H     0.0000000000  -1.4195857190   0.9498523847
	    H     0.0000000000   1.4195857190   0.9498523847
	Saving final (previous) structure.
			--------------------------
			 OPTKING Finished Execution 
			--------------------------

	Final optimized geometry and variables (in Angstrom):

	O
	H     1    0.940561
	H     1    0.940561     2  106.009449


*** PSI4 exiting successfully. Buy a developer a beer!
