    -----------------------------------------------------------------------
          PSI4: An Open-Source Ab Initio Electronic Structure Package
                              PSI 4.0.0-beta1 Driver

               Git: Rev 8268e5ba0276eef671d5bc4a44cf66fa46407463

    J. M. Turney, A. C. Simmonett, R. M. Parrish, E. G. Hohenstein,
    F. A. Evangelista, J. T. Fermann, B. J. Mintz, L. A. Burns, J. J. Wilke,
    M. L. Abrams, N. J. Russ, M. L. Leininger, C. L. Janssen, E. T. Seidl,
    W. D. Allen, H. F. Schaefer, R. A. King, E. F. Valeev, C. D. Sherrill,
    and T. D. Crawford, WIREs Comput. Mol. Sci., (2011) (doi: 10.1002/wcms.93)

                         Additional Contributions by
    A. E. DePrince, M. Saitow, U. Bozkaya, A. Yu. Sokolov
    -----------------------------------------------------------------------


    Using LocalCommunicator (Number of processes = 1)

    Memory level set to 256.000 MB

  ==> Input File <==

--------------------------------------------------------------------------
#! Frequencies for H2O HF/cc-pVDZ at optimized geometry

memory 250 mb

molecule h2o {
  O 
  H 1 0.9463
  H 1 0.9463 2 104.575
}

set basis cc-pVDZ
frequencies('scf')

ref_freqs = PsiMod.Vector(3) #TEST
ref_freqs.set(0, 0, 1776.17) #TEST
ref_freqs.set(0, 1, 4113.80) #TEST
ref_freqs.set(0, 2, 4211.79) #TEST

fd_freqs = PsiMod.reference_wavefunction().frequencies() #TEST
compare_vectors(ref_freqs, fd_freqs, 1, "Reference vs computed frequencies to 0.1 cm^-1") #TEST
--------------------------------------------------------------------------

  Memory set to 250.000 MiB by Python script.

-------------------------------------------------------------

  Using finite-differences of gradients to determine vibrational frequencies and 
  normal modes.  Resulting frequencies are only valid at stationary points.
	Generating geometries for use with 3-point formula.
	Displacement size will be 5.00e-03.
	Number of atoms is 3.
	Number of irreps is 4.
	Number of SALCS is 3.
	Index of salcs per irrep:
	 1 :  0  1 
	 2 : 
	 3 : 
	 4 :  2 
	Number of SALC's per irrep:
		 Irrep 1: 2
		 Irrep 2: 0
		 Irrep 3: 0
		 Irrep 4: 1
	Number of geometries (including reference) is 6.
	Number of displacements per irrep:
	  Irrep 1: 4
	  Irrep 2: 0
	  Irrep 3: 0
	  Irrep 4: 1

-------------------------------------------------------------

  //>>>>>>>>>>>>>>>>>>>>>>>>>>>>>>>>>>>//
  //    Loading displacement 1 of 6    //
  //<<<<<<<<<<<<<<<<<<<<<<<<<<<<<<<<<<<//

*** tstart() called on lawn-143-215-103-161.lawn.gatech.edu
*** at Fri Apr 27 13:50:53 2012

	There are an even number of electrons - assuming singlet.
	Specify the multiplicity with the MULTP option in the
	input if this is incorrect


         ---------------------------------------------------------
                                   SCF
            by Justin Turney, Rob Parrish, and Andy Simmonett
                              RHF Reference
                        1 Threads,    250 MiB Core
         ---------------------------------------------------------

  ==> Geometry <==

    Molecular point group: c2v

    Geometry (in Angstrom), charge = 0, multiplicity = 1:

       Center              X                  Y                   Z       
    ------------   -----------------  -----------------  -----------------
           O          0.000000000000     0.000000000000    -0.065003399788
           H          0.000000000000    -0.748608561284     0.515825563219
           H          0.000000000000     0.748608561284     0.515825563219

  Running in c2v symmetry.

  Nuclear repulsion =    9.289310920137744

  Charge       = 0
  Multiplicity = 1
  Electrons    = 10
  Nalpha       = 5
  Nbeta        = 5

  ==> Algorithm <==

  SCF Algorithm Type is PK.
  DIIS enabled.
  MOM disabled.
  Fractional occupation disabled.
  Guess Type is CORE.
  Energy threshold   = 1.00e-08
  Density threshold  = 1.00e-08
  Integral threshold = 0.00e+00

  ==> Primary Basis <==

  Basis Set: CC-PVDZ
    Number of shells: 12
    Number of basis function: 24
    Number of Cartesian functions: 25
    Spherical Harmonics?: true
    Max angular momentum: 2

  ==> Pre-Iterations <==

  Minimum eigenvalue in the overlap matrix is 3.3479637580E-02.
  Using Symmetric Orthogonalization.
  SCF Guess: Core (One-Electron) Hamiltonian.

  Initial RHF energy:   -58.53029486720936

   -------------------------------------------------------
    Irrep   Nso     Nmo     Nalpha   Nbeta   Ndocc  Nsocc
   -------------------------------------------------------
     A1        11      11       3       3       3       0
     A2         2       2       0       0       0       0
     B1         4       4       1       1       1       0
     B2         7       7       1       1       1       0
   -------------------------------------------------------
    Total      24      24       5       5       5       0
   -------------------------------------------------------

  ==> Integral Setup <==

 MINTS: Wrapper to libmints.
   by Justin Turney

   Calculation information:
      Number of atoms:                   3
      Number of AO shells:              12
      Number of SO shells:               9
      Number of primitives:             32
      Number of atomic orbitals:        25
      Number of basis functions:        24

      Number of irreps:                  4
      Number of functions per irrep: [  11    2    4    7 ]

      Overlap, kinetic, potential, dipole, and quadrupole integrals
        stored in file 35.

      Computing two-electron integrals...done
      Computed 11412 non-zero two-electron integrals.
        Stored in file 33.

  ==> Iterations <==

                        Total Energy        Delta E     Density RMS

   @RHF iter   1:   -68.85931741798569   -1.03290e+01   0.00000e+00 
	Occupation by irrep:
	         A1    A2    B1    B2 
	DOCC [     3,    0,    0,    2 ]

   @RHF iter   2:   -69.96375207193310   -1.10443e+00   5.62364e-01 DIIS
	Occupation by irrep:
	         A1    A2    B1    B2 
	DOCC [     3,    0,    1,    1 ]

   @RHF iter   3:   -75.72819679525864   -5.76444e+00   5.30086e-01 DIIS
   @RHF iter   4:   -76.00118323965458   -2.72986e-01   1.81521e-02 DIIS
   @RHF iter   5:   -76.02677100354214   -2.55878e-02   8.45498e-03 DIIS
   @RHF iter   6:   -76.02700936295258   -2.38359e-04   1.28263e-03 DIIS
   @RHF iter   7:   -76.02704772836390   -3.83654e-05   4.51114e-04 DIIS
   @RHF iter   8:   -76.02704925096498   -1.52260e-06   9.99471e-05 DIIS
   @RHF iter   9:   -76.02704933594663   -8.49817e-08   1.70492e-05 DIIS
   @RHF iter  10:   -76.02704933659899   -6.52363e-10   2.24845e-06 DIIS
   @RHF iter  11:   -76.02704933664023   -4.12399e-11   4.18864e-07 DIIS
   @RHF iter  12:   -76.02704933664140   -1.16529e-12   5.86802e-08 DIIS
   @RHF iter  13:   -76.02704933664137    2.84217e-14   1.27418e-08 DIIS

  ==> Post-Iterations <==

	Orbital Energies (a.u.)
	-----------------------

	Doubly Occupied:                                                      

	   1A1   -20.548771     2A1    -1.341815     1B2    -0.704314  
	   3A1    -0.568643     1B1    -0.493912  

	Virtual:                                                              

	   4A1     0.187161     2B2     0.257670     3B2     0.795966  
	   5A1     0.864249     6A1     1.162912     2B1     1.200354  
	   4B2     1.252898     7A1     1.441969     1A2     1.479285  
	   3B1     1.675936     8A1     1.865012     5B2     1.946574  
	   6B2     2.475773     9A1     2.515478     4B1     3.295038  
	   2A2     3.348096    10A1     3.524082    11A1     3.875629  
	   7B2     4.159420  

	Final Occupation by Irrep:
	         A1    A2    B1    B2 
	DOCC [     3,    0,    1,    1 ]

  Energy converged.

  @RHF Final Energy:   -76.02704933664137

   => Energetics <=

    Nuclear Repulsion Energy =          9.2893109201377442
    One-Electron Energy =            -123.3178105089102843
    Two-Electron Energy =              38.0014502521311499
    DFT Functional Energy =             0.0000000000000000
    Empirical Dispersion Energy =       0.0000000000000000
    Total Energy =                    -76.0270493366413973

  ==> Properties <==

  Nuclear Dipole Moment: (a.u.)
     X:     0.0000      Y:     0.0000      Z:     0.9668

  Electronic Dipole Moment: (a.u.)
     X:     0.0000      Y:     0.0000      Z:    -0.1607

  Dipole Moment: (a.u.)
     X:     0.0000      Y:     0.0000      Z:     0.8061     Total:     0.8061

  Dipole Moment: (Debye)
     X:     0.0000      Y:     0.0000      Z:     2.0489     Total:     2.0489


  Saving occupied orbitals to File 180.

*** tstop() called on lawn-143-215-103-161.lawn.gatech.edu at Fri Apr 27 13:50:53 2012
Module time:
	user time   =       0.08 seconds =       0.00 minutes
	system time =       0.01 seconds =       0.00 minutes
	total time  =          0 seconds =       0.00 minutes
Total time:
	user time   =       0.08 seconds =       0.00 minutes
	system time =       0.01 seconds =       0.00 minutes
	total time  =          0 seconds =       0.00 minutes

*** tstart() called on lawn-143-215-103-161.lawn.gatech.edu
*** at Fri Apr 27 13:50:53 2012

 DERIV: Derivative code.
   by Justin Turney

  Cartesian Displacement SALCs
  By SALC:
  Number of SALCs: 3, nirreps: 1
  Project out translations: False
  Project out rotations: False
	irrep = 0, ncomponent = 1
		0: atom 0, direction z, coef 1.000000
	irrep = 0, ncomponent = 2
		0: atom 1, direction y, coef 0.707107
		1: atom 2, direction y, coef -0.707107
	irrep = 0, ncomponent = 2
		0: atom 1, direction z, coef 0.707107
		1: atom 2, direction z, coef 0.707107

  By Atomic Center:
  Number of atomic centers: 3
   Atomic Center 0:
	x component, size = 0
	y component, size = 0
	z component, size = 1
		0: salc 0, irrep 0, coef 1.000000
   Atomic Center 1:
	x component, size = 0
	y component, size = 1
		0: salc 1, irrep 0, coef 0.707107
	z component, size = 1
		0: salc 2, irrep 0, coef 0.707107
   Atomic Center 2:
	x component, size = 0
	y component, size = 1
		0: salc 1, irrep 0, coef -0.707107
	z component, size = 1
		0: salc 2, irrep 0, coef 0.707107

    Molecular point group: c2v

    Geometry (in Bohr), charge = 0, multiplicity = 1:

       Center              X                  Y                   Z       
    ------------   -----------------  -----------------  -----------------
           O          0.000000000000     0.000000000000    -0.122838623305
           H          0.000000000000    -1.414665161561     0.974769046825
           H          0.000000000000     1.414665161561     0.974769046825


  -Nuclear Repulsion Energy 1st Derivatives:
     Atom            X                  Y                   Z
    ------   -----------------  -----------------  -----------------
       1        0.000000000000     0.000000000000     3.059269600769
       2        0.000000000000     2.096408854372    -1.529634800385
       3        0.000000000000    -2.096408854372    -1.529634800385


  -One-electron contribution to gradient:
     Atom            X                  Y                   Z
    ------   -----------------  -----------------  -----------------
       1        0.000000000000     0.000000000000    -7.692877793393
       2        0.000000000000    -5.114586751428     3.846438896696
       3        0.000000000000     5.114586751428     3.846438896696


  -Lagrangian contribution to gradient:
     Atom            X                  Y                   Z
    ------   -----------------  -----------------  -----------------
       1        0.000000000000     0.000000000000     0.500878641783
       2        0.000000000000     0.304820719828    -0.250439320892
       3        0.000000000000    -0.304820719828    -0.250439320892


  -Two-electron contribution to gradient:
     Atom            X                  Y                   Z
    ------   -----------------  -----------------  -----------------
       1        0.000000000000     0.000000000000     4.130617174228
       2        0.000000000000     2.712524022282    -2.065308587114
       3        0.000000000000    -2.712524022282    -2.065308587114


  -Total gradient:
     Atom            X                  Y                   Z
    ------   -----------------  -----------------  -----------------
       1        0.000000000000     0.000000000000    -0.002112376612
       2        0.000000000000    -0.000833154945     0.001056188306
       3        0.000000000000     0.000833154945     0.001056188306


*** tstop() called on lawn-143-215-103-161.lawn.gatech.edu at Fri Apr 27 13:50:53 2012
Module time:
	user time   =       0.15 seconds =       0.00 minutes
	system time =       0.02 seconds =       0.00 minutes
	total time  =          0 seconds =       0.00 minutes
Total time:
	user time   =       0.23 seconds =       0.00 minutes
	system time =       0.03 seconds =       0.00 minutes
	total time  =          0 seconds =       0.00 minutes

  //>>>>>>>>>>>>>>>>>>>>>>>>>>>>>>>>>>>//
  //    Loading displacement 2 of 6    //
  //<<<<<<<<<<<<<<<<<<<<<<<<<<<<<<<<<<<//

*** tstart() called on lawn-143-215-103-161.lawn.gatech.edu
*** at Fri Apr 27 13:50:53 2012

	There are an even number of electrons - assuming singlet.
	Specify the multiplicity with the MULTP option in the
	input if this is incorrect


         ---------------------------------------------------------
                                   SCF
            by Justin Turney, Rob Parrish, and Andy Simmonett
                              RHF Reference
                        1 Threads,    250 MiB Core
         ---------------------------------------------------------

  ==> Geometry <==

    Molecular point group: c2v

    Geometry (in Angstrom), charge = 0, multiplicity = 1:

       Center              X                  Y                   Z       
    ------------   -----------------  -----------------  -----------------
           O          0.000000000000     0.000000000000    -0.064560756308
           H          0.000000000000    -0.748608561284     0.512313026595
           H          0.000000000000     0.748608561284     0.512313026595

  Running in c2v symmetry.

  Nuclear repulsion =    9.312186223104735

  Charge       = 0
  Multiplicity = 1
  Electrons    = 10
  Nalpha       = 5
  Nbeta        = 5

  ==> Algorithm <==

  SCF Algorithm Type is PK.
  DIIS enabled.
  MOM disabled.
  Fractional occupation disabled.
  Guess Type is CORE.
  Energy threshold   = 1.00e-08
  Density threshold  = 1.00e-08
  Integral threshold = 0.00e+00

  ==> Primary Basis <==

  Basis Set: CC-PVDZ
    Number of shells: 12
    Number of basis function: 24
    Number of Cartesian functions: 25
    Spherical Harmonics?: true
    Max angular momentum: 2

  ==> Pre-Iterations <==

  Minimum eigenvalue in the overlap matrix is 3.3361524132E-02.
  Using Symmetric Orthogonalization.
  SCF Guess: Core (One-Electron) Hamiltonian.

  Initial RHF energy:   -58.52331369410763

   -------------------------------------------------------
    Irrep   Nso     Nmo     Nalpha   Nbeta   Ndocc  Nsocc
   -------------------------------------------------------
     A1        11      11       3       3       3       0
     A2         2       2       0       0       0       0
     B1         4       4       1       1       1       0
     B2         7       7       1       1       1       0
   -------------------------------------------------------
    Total      24      24       5       5       5       0
   -------------------------------------------------------

  ==> Integral Setup <==

 MINTS: Wrapper to libmints.
   by Justin Turney

   Calculation information:
      Number of atoms:                   3
      Number of AO shells:              12
      Number of SO shells:               9
      Number of primitives:             32
      Number of atomic orbitals:        25
      Number of basis functions:        24

      Number of irreps:                  4
      Number of functions per irrep: [  11    2    4    7 ]

      Overlap, kinetic, potential, dipole, and quadrupole integrals
        stored in file 35.

      Computing two-electron integrals...done
      Computed 11412 non-zero two-electron integrals.
        Stored in file 33.

  ==> Iterations <==

                        Total Energy        Delta E     Density RMS

   @RHF iter   1:   -68.85680284860348   -1.03335e+01   0.00000e+00 
	Occupation by irrep:
	         A1    A2    B1    B2 
	DOCC [     3,    0,    0,    2 ]

   @RHF iter   2:   -69.97372105717655   -1.11692e+00   5.63061e-01 DIIS
	Occupation by irrep:
	         A1    A2    B1    B2 
	DOCC [     3,    0,    1,    1 ]

   @RHF iter   3:   -75.72618711059341   -5.75247e+00   5.30768e-01 DIIS
   @RHF iter   4:   -76.00100856536969   -2.74821e-01   1.82146e-02 DIIS
   @RHF iter   5:   -76.02677382369950   -2.57653e-02   8.47879e-03 DIIS
   @RHF iter   6:   -76.02701066291412   -2.36839e-04   1.27360e-03 DIIS
   @RHF iter   7:   -76.02704849146721   -3.78286e-05   4.48627e-04 DIIS
   @RHF iter   8:   -76.02704999634119   -1.50487e-06   9.94107e-05 DIIS
   @RHF iter   9:   -76.02705008035576   -8.40146e-08   1.70482e-05 DIIS
   @RHF iter  10:   -76.02705008100652   -6.50758e-10   2.25057e-06 DIIS
   @RHF iter  11:   -76.02705008104738   -4.08562e-11   4.16871e-07 DIIS
   @RHF iter  12:   -76.02705008104846   -1.08002e-12   5.77132e-08 DIIS
   @RHF iter  13:   -76.02705008104850   -4.26326e-14   1.25614e-08 DIIS

  ==> Post-Iterations <==

	Orbital Energies (a.u.)
	-----------------------

	Doubly Occupied:                                                      

	   1A1   -20.548135     2A1    -1.342772     1B2    -0.706371  
	   3A1    -0.568311     1B1    -0.493961  

	Virtual:                                                              

	   4A1     0.187641     2B2     0.257956     3B2     0.799088  
	   5A1     0.864839     6A1     1.162426     2B1     1.200424  
	   4B2     1.252394     7A1     1.445082     1A2     1.478681  
	   3B1     1.678625     8A1     1.865384     5B2     1.947030  
	   6B2     2.482729     9A1     2.520972     4B1     3.295138  
	   2A2     3.351996    10A1     3.525490    11A1     3.881546  
	   7B2     4.159918  

	Final Occupation by Irrep:
	         A1    A2    B1    B2 
	DOCC [     3,    0,    1,    1 ]

  Energy converged.

  @RHF Final Energy:   -76.02705008104850

   => Energetics <=

    Nuclear Repulsion Energy =          9.3121862231047352
    One-Electron Energy =            -123.3593690925588788
    Two-Electron Energy =              38.0201327884056468
    DFT Functional Energy =             0.0000000000000000
    Empirical Dispersion Energy =       0.0000000000000000
    Total Energy =                    -76.0270500810485004

  ==> Properties <==

  Nuclear Dipole Moment: (a.u.)
     X:     0.0000      Y:     0.0000      Z:     0.9602

  Electronic Dipole Moment: (a.u.)
     X:     0.0000      Y:     0.0000      Z:    -0.1574

  Dipole Moment: (a.u.)
     X:     0.0000      Y:     0.0000      Z:     0.8029     Total:     0.8029

  Dipole Moment: (Debye)
     X:     0.0000      Y:     0.0000      Z:     2.0407     Total:     2.0407


  Saving occupied orbitals to File 180.

*** tstop() called on lawn-143-215-103-161.lawn.gatech.edu at Fri Apr 27 13:50:53 2012
Module time:
	user time   =       0.08 seconds =       0.00 minutes
	system time =       0.01 seconds =       0.00 minutes
	total time  =          0 seconds =       0.00 minutes
Total time:
	user time   =       0.31 seconds =       0.01 minutes
	system time =       0.04 seconds =       0.00 minutes
	total time  =          0 seconds =       0.00 minutes

*** tstart() called on lawn-143-215-103-161.lawn.gatech.edu
*** at Fri Apr 27 13:50:53 2012

 DERIV: Derivative code.
   by Justin Turney

  Cartesian Displacement SALCs
  By SALC:
  Number of SALCs: 3, nirreps: 1
  Project out translations: False
  Project out rotations: False
	irrep = 0, ncomponent = 1
		0: atom 0, direction z, coef 1.000000
	irrep = 0, ncomponent = 2
		0: atom 1, direction y, coef 0.707107
		1: atom 2, direction y, coef -0.707107
	irrep = 0, ncomponent = 2
		0: atom 1, direction z, coef 0.707107
		1: atom 2, direction z, coef 0.707107

  By Atomic Center:
  Number of atomic centers: 3
   Atomic Center 0:
	x component, size = 0
	y component, size = 0
	z component, size = 1
		0: salc 0, irrep 0, coef 1.000000
   Atomic Center 1:
	x component, size = 0
	y component, size = 1
		0: salc 1, irrep 0, coef 0.707107
	z component, size = 1
		0: salc 2, irrep 0, coef 0.707107
   Atomic Center 2:
	x component, size = 0
	y component, size = 1
		0: salc 1, irrep 0, coef -0.707107
	z component, size = 1
		0: salc 2, irrep 0, coef 0.707107

    Molecular point group: c2v

    Geometry (in Bohr), charge = 0, multiplicity = 1:

       Center              X                  Y                   Z       
    ------------   -----------------  -----------------  -----------------
           O          0.000000000000     0.000000000000    -0.122002148354
           H          0.000000000000    -1.414665161561     0.968131314575
           H          0.000000000000     1.414665161561     0.968131314575


  -Nuclear Repulsion Energy 1st Derivatives:
     Atom            X                  Y                   Z
    ------   -----------------  -----------------  -----------------
       1        0.000000000000     0.000000000000     3.061831820836
       2        0.000000000000     2.111588331884    -1.530915910418
       3        0.000000000000    -2.111588331884    -1.530915910418


  -One-electron contribution to gradient:
     Atom            X                  Y                   Z
    ------   -----------------  -----------------  -----------------
       1        0.000000000000     0.000000000000    -7.676058691624
       2        0.000000000000    -5.147824344277     3.838029345812
       3        0.000000000000     5.147824344277     3.838029345812


  -Lagrangian contribution to gradient:
     Atom            X                  Y                   Z
    ------   -----------------  -----------------  -----------------
       1        0.000000000000     0.000000000000     0.499757657613
       2        0.000000000000     0.306708444510    -0.249878828806
       3        0.000000000000    -0.306708444510    -0.249878828806


  -Two-electron contribution to gradient:
     Atom            X                  Y                   Z
    ------   -----------------  -----------------  -----------------
       1        0.000000000000     0.000000000000     4.116386201241
       2        0.000000000000     2.730457193609    -2.058193100620
       3        0.000000000000    -2.730457193609    -2.058193100620


  -Total gradient:
     Atom            X                  Y                   Z
    ------   -----------------  -----------------  -----------------
       1        0.000000000000     0.000000000000     0.001916988065
       2        0.000000000000     0.000929625726    -0.000958494033
       3        0.000000000000    -0.000929625726    -0.000958494033


*** tstop() called on lawn-143-215-103-161.lawn.gatech.edu at Fri Apr 27 13:50:53 2012
Module time:
	user time   =       0.15 seconds =       0.00 minutes
	system time =       0.01 seconds =       0.00 minutes
	total time  =          0 seconds =       0.00 minutes
Total time:
	user time   =       0.46 seconds =       0.01 minutes
	system time =       0.05 seconds =       0.00 minutes
	total time  =          0 seconds =       0.00 minutes

  //>>>>>>>>>>>>>>>>>>>>>>>>>>>>>>>>>>>//
  //    Loading displacement 3 of 6    //
  //<<<<<<<<<<<<<<<<<<<<<<<<<<<<<<<<<<<//

*** tstart() called on lawn-143-215-103-161.lawn.gatech.edu
*** at Fri Apr 27 13:50:53 2012

	There are an even number of electrons - assuming singlet.
	Specify the multiplicity with the MULTP option in the
	input if this is incorrect


         ---------------------------------------------------------
                                   SCF
            by Justin Turney, Rob Parrish, and Andy Simmonett
                              RHF Reference
                        1 Threads,    250 MiB Core
         ---------------------------------------------------------

  ==> Geometry <==

    Molecular point group: c2v

    Geometry (in Angstrom), charge = 0, multiplicity = 1:

       Center              X                  Y                   Z       
    ------------   -----------------  -----------------  -----------------
           O          0.000000000000     0.000000000000    -0.064782078048
           H          0.000000000000    -0.750472207909     0.514069294907
           H          0.000000000000     0.750472207909     0.514069294907

  Running in c2v symmetry.

  Nuclear repulsion =    9.285944016385777

  Charge       = 0
  Multiplicity = 1
  Electrons    = 10
  Nalpha       = 5
  Nbeta        = 5

  ==> Algorithm <==

  SCF Algorithm Type is PK.
  DIIS enabled.
  MOM disabled.
  Fractional occupation disabled.
  Guess Type is CORE.
  Energy threshold   = 1.00e-08
  Density threshold  = 1.00e-08
  Integral threshold = 0.00e+00

  ==> Primary Basis <==

  Basis Set: CC-PVDZ
    Number of shells: 12
    Number of basis function: 24
    Number of Cartesian functions: 25
    Spherical Harmonics?: true
    Max angular momentum: 2

  ==> Pre-Iterations <==

  Minimum eigenvalue in the overlap matrix is 3.3541688270E-02.
  Using Symmetric Orthogonalization.
  SCF Guess: Core (One-Electron) Hamiltonian.

  Initial RHF energy:   -58.53172458644693

   -------------------------------------------------------
    Irrep   Nso     Nmo     Nalpha   Nbeta   Ndocc  Nsocc
   -------------------------------------------------------
     A1        11      11       3       3       3       0
     A2         2       2       0       0       0       0
     B1         4       4       1       1       1       0
     B2         7       7       1       1       1       0
   -------------------------------------------------------
    Total      24      24       5       5       5       0
   -------------------------------------------------------

  ==> Integral Setup <==

 MINTS: Wrapper to libmints.
   by Justin Turney

   Calculation information:
      Number of atoms:                   3
      Number of AO shells:              12
      Number of SO shells:               9
      Number of primitives:             32
      Number of atomic orbitals:        25
      Number of basis functions:        24

      Number of irreps:                  4
      Number of functions per irrep: [  11    2    4    7 ]

      Overlap, kinetic, potential, dipole, and quadrupole integrals
        stored in file 35.

      Computing two-electron integrals...done
      Computed 11412 non-zero two-electron integrals.
        Stored in file 33.

  ==> Iterations <==

                        Total Energy        Delta E     Density RMS

   @RHF iter   1:   -68.86053675463424   -1.03288e+01   0.00000e+00 
	Occupation by irrep:
	         A1    A2    B1    B2 
	DOCC [     3,    0,    0,    2 ]

   @RHF iter   2:   -69.96897591269840   -1.10844e+00   5.61395e-01 DIIS
	Occupation by irrep:
	         A1    A2    B1    B2 
	DOCC [     3,    0,    1,    1 ]

   @RHF iter   3:   -75.72850464370228   -5.75953e+00   5.29073e-01 DIIS
   @RHF iter   4:   -76.00120430550101   -2.72700e-01   1.81364e-02 DIIS
   @RHF iter   5:   -76.02677005097905   -2.55657e-02   8.44480e-03 DIIS
   @RHF iter   6:   -76.02700811495936   -2.38064e-04   1.27857e-03 DIIS
   @RHF iter   7:   -76.02704645223403   -3.83373e-05   4.50734e-04 DIIS
   @RHF iter   8:   -76.02704797733082   -1.52510e-06   1.00069e-04 DIIS
   @RHF iter   9:   -76.02704806234703   -8.50162e-08   1.71006e-05 DIIS
   @RHF iter  10:   -76.02704806301460   -6.67569e-10   2.27854e-06 DIIS
   @RHF iter  11:   -76.02704806305678   -4.21778e-11   4.24674e-07 DIIS
   @RHF iter  12:   -76.02704806305792   -1.13687e-12   5.88184e-08 DIIS
   @RHF iter  13:   -76.02704806305798   -5.68434e-14   1.27201e-08 DIIS

  ==> Post-Iterations <==

	Orbital Energies (a.u.)
	-----------------------

	Doubly Occupied:                                                      

	   1A1   -20.548640     2A1    -1.341410     1B2    -0.704805  
	   3A1    -0.567920     1B1    -0.493775  

	Virtual:                                                              

	   4A1     0.187189     2B2     0.257587     3B2     0.796917  
	   5A1     0.862476     6A1     1.162668     2B1     1.200439  
	   4B2     1.252579     7A1     1.444991     1A2     1.478124  
	   3B1     1.677743     8A1     1.865796     5B2     1.944311  
	   6B2     2.476105     9A1     2.514149     4B1     3.293024  
	   2A2     3.349107    10A1     3.522188    11A1     3.878067  
	   7B2     4.157160  

	Final Occupation by Irrep:
	         A1    A2    B1    B2 
	DOCC [     3,    0,    1,    1 ]

  Energy converged.

  @RHF Final Energy:   -76.02704806305798

   => Energetics <=

    Nuclear Repulsion Energy =          9.2859440163857769
    One-Electron Energy =            -123.3128844277315466
    Two-Electron Energy =              37.9998923482878226
    DFT Functional Energy =             0.0000000000000000
    Empirical Dispersion Energy =       0.0000000000000000
    Total Energy =                    -76.0270480630579470

  ==> Properties <==

  Nuclear Dipole Moment: (a.u.)
     X:     0.0000      Y:     0.0000      Z:     0.9635

  Electronic Dipole Moment: (a.u.)
     X:     0.0000      Y:     0.0000      Z:    -0.1593

  Dipole Moment: (a.u.)
     X:     0.0000      Y:     0.0000      Z:     0.8042     Total:     0.8042

  Dipole Moment: (Debye)
     X:     0.0000      Y:     0.0000      Z:     2.0442     Total:     2.0442


  Saving occupied orbitals to File 180.

*** tstop() called on lawn-143-215-103-161.lawn.gatech.edu at Fri Apr 27 13:50:54 2012
Module time:
	user time   =       0.07 seconds =       0.00 minutes
	system time =       0.01 seconds =       0.00 minutes
	total time  =          1 seconds =       0.02 minutes
Total time:
	user time   =       0.53 seconds =       0.01 minutes
	system time =       0.06 seconds =       0.00 minutes
	total time  =          1 seconds =       0.02 minutes

*** tstart() called on lawn-143-215-103-161.lawn.gatech.edu
*** at Fri Apr 27 13:50:54 2012

 DERIV: Derivative code.
   by Justin Turney

  Cartesian Displacement SALCs
  By SALC:
  Number of SALCs: 3, nirreps: 1
  Project out translations: False
  Project out rotations: False
	irrep = 0, ncomponent = 1
		0: atom 0, direction z, coef 1.000000
	irrep = 0, ncomponent = 2
		0: atom 1, direction y, coef 0.707107
		1: atom 2, direction y, coef -0.707107
	irrep = 0, ncomponent = 2
		0: atom 1, direction z, coef 0.707107
		1: atom 2, direction z, coef 0.707107

  By Atomic Center:
  Number of atomic centers: 3
   Atomic Center 0:
	x component, size = 0
	y component, size = 0
	z component, size = 1
		0: salc 0, irrep 0, coef 1.000000
   Atomic Center 1:
	x component, size = 0
	y component, size = 1
		0: salc 1, irrep 0, coef 0.707107
	z component, size = 1
		0: salc 2, irrep 0, coef 0.707107
   Atomic Center 2:
	x component, size = 0
	y component, size = 1
		0: salc 1, irrep 0, coef -0.707107
	z component, size = 1
		0: salc 2, irrep 0, coef 0.707107

    Molecular point group: c2v

    Geometry (in Bohr), charge = 0, multiplicity = 1:

       Center              X                  Y                   Z       
    ------------   -----------------  -----------------  -----------------
           O          0.000000000000     0.000000000000    -0.122420385829
           H          0.000000000000    -1.418186943290     0.971450180700
           H          0.000000000000     1.418186943290     0.971450180700


  -Nuclear Repulsion Energy 1st Derivatives:
     Atom            X                  Y                   Z
    ------   -----------------  -----------------  -----------------
       1        0.000000000000     0.000000000000     3.046306299823
       2        0.000000000000     2.099045984927    -1.523153149911
       3        0.000000000000    -2.099045984927    -1.523153149911


  -One-electron contribution to gradient:
     Atom            X                  Y                   Z
    ------   -----------------  -----------------  -----------------
       1        0.000000000000     0.000000000000    -7.655099262007
       2        0.000000000000    -5.127726846623     3.827549631003
       3        0.000000000000     5.127726846623     3.827549631003


  -Lagrangian contribution to gradient:
     Atom            X                  Y                   Z
    ------   -----------------  -----------------  -----------------
       1        0.000000000000     0.000000000000     0.498590072116
       2        0.000000000000     0.305578852923    -0.249295036058
       3        0.000000000000    -0.305578852923    -0.249295036058


  -Two-electron contribution to gradient:
     Atom            X                  Y                   Z
    ------   -----------------  -----------------  -----------------
       1        0.000000000000     0.000000000000     4.108452778811
       2        0.000000000000     2.721524403235    -2.054226389405
       3        0.000000000000    -2.721524403235    -2.054226389405


  -Total gradient:
     Atom            X                  Y                   Z
    ------   -----------------  -----------------  -----------------
       1        0.000000000000     0.000000000000    -0.001750111257
       2        0.000000000000    -0.001577605538     0.000875055629
       3        0.000000000000     0.001577605538     0.000875055629


*** tstop() called on lawn-143-215-103-161.lawn.gatech.edu at Fri Apr 27 13:50:54 2012
Module time:
	user time   =       0.16 seconds =       0.00 minutes
	system time =       0.01 seconds =       0.00 minutes
	total time  =          0 seconds =       0.00 minutes
Total time:
	user time   =       0.69 seconds =       0.01 minutes
	system time =       0.07 seconds =       0.00 minutes
	total time  =          1 seconds =       0.02 minutes

  //>>>>>>>>>>>>>>>>>>>>>>>>>>>>>>>>>>>//
  //    Loading displacement 4 of 6    //
  //<<<<<<<<<<<<<<<<<<<<<<<<<<<<<<<<<<<//

*** tstart() called on lawn-143-215-103-161.lawn.gatech.edu
*** at Fri Apr 27 13:50:54 2012

	There are an even number of electrons - assuming singlet.
	Specify the multiplicity with the MULTP option in the
	input if this is incorrect


         ---------------------------------------------------------
                                   SCF
            by Justin Turney, Rob Parrish, and Andy Simmonett
                              RHF Reference
                        1 Threads,    250 MiB Core
         ---------------------------------------------------------

  ==> Geometry <==

    Molecular point group: c2v

    Geometry (in Angstrom), charge = 0, multiplicity = 1:

       Center              X                  Y                   Z       
    ------------   -----------------  -----------------  -----------------
           O          0.000000000000     0.000000000000    -0.064782078048
           H          0.000000000000    -0.746744914660     0.514069294907
           H          0.000000000000     0.746744914660     0.514069294907

  Running in c2v symmetry.

  Nuclear repulsion =    9.315583170429569

  Charge       = 0
  Multiplicity = 1
  Electrons    = 10
  Nalpha       = 5
  Nbeta        = 5

  ==> Algorithm <==

  SCF Algorithm Type is PK.
  DIIS enabled.
  MOM disabled.
  Fractional occupation disabled.
  Guess Type is CORE.
  Energy threshold   = 1.00e-08
  Density threshold  = 1.00e-08
  Integral threshold = 0.00e+00

  ==> Primary Basis <==

  Basis Set: CC-PVDZ
    Number of shells: 12
    Number of basis function: 24
    Number of Cartesian functions: 25
    Spherical Harmonics?: true
    Max angular momentum: 2

  ==> Pre-Iterations <==

  Minimum eigenvalue in the overlap matrix is 3.3300136891E-02.
  Using Symmetric Orthogonalization.
  SCF Guess: Core (One-Electron) Hamiltonian.

  Initial RHF energy:   -58.52187542728374

   -------------------------------------------------------
    Irrep   Nso     Nmo     Nalpha   Nbeta   Ndocc  Nsocc
   -------------------------------------------------------
     A1        11      11       3       3       3       0
     A2         2       2       0       0       0       0
     B1         4       4       1       1       1       0
     B2         7       7       1       1       1       0
   -------------------------------------------------------
    Total      24      24       5       5       5       0
   -------------------------------------------------------

  ==> Integral Setup <==

 MINTS: Wrapper to libmints.
   by Justin Turney

   Calculation information:
      Number of atoms:                   3
      Number of AO shells:              12
      Number of SO shells:               9
      Number of primitives:             32
      Number of atomic orbitals:        25
      Number of basis functions:        24

      Number of irreps:                  4
      Number of functions per irrep: [  11    2    4    7 ]

      Overlap, kinetic, potential, dipole, and quadrupole integrals
        stored in file 35.

      Computing two-electron integrals...done
      Computed 11412 non-zero two-electron integrals.
        Stored in file 33.

  ==> Iterations <==

                        Total Energy        Delta E     Density RMS

   @RHF iter   1:   -68.85557023841864   -1.03337e+01   0.00000e+00 
	Occupation by irrep:
	         A1    A2    B1    B2 
	DOCC [     3,    0,    0,    2 ]

   @RHF iter   2:   -69.96850586963811   -1.11294e+00   5.64039e-01 DIIS
	Occupation by irrep:
	         A1    A2    B1    B2 
	DOCC [     3,    0,    1,    1 ]

   @RHF iter   3:   -75.72587221023286   -5.75737e+00   5.31789e-01 DIIS
   @RHF iter   4:   -76.00098305180708   -2.75111e-01   1.82303e-02 DIIS
   @RHF iter   5:   -76.02677084722350   -2.57878e-02   8.48907e-03 DIIS
   @RHF iter   6:   -76.02700797318425   -2.37126e-04   1.27767e-03 DIIS
   @RHF iter   7:   -76.02704583001861   -3.78568e-05   4.49022e-04 DIIS
   @RHF iter   8:   -76.02704733248069   -1.50246e-06   9.92921e-05 DIIS
   @RHF iter   9:   -76.02704741645979   -8.39791e-08   1.69965e-05 DIIS
   @RHF iter  10:   -76.02704741709582   -6.36021e-10   2.22081e-06 DIIS
   @RHF iter  11:   -76.02704741713575   -3.99325e-11   4.11143e-07 DIIS
   @RHF iter  12:   -76.02704741713688   -1.13687e-12   5.75673e-08 DIIS
   @RHF iter  13:   -76.02704741713683    5.68434e-14   1.25826e-08 DIIS

  ==> Post-Iterations <==

	Orbital Energies (a.u.)
	-----------------------

	Doubly Occupied:                                                      

	   1A1   -20.548265     2A1    -1.343181     1B2    -0.705877  
	   3A1    -0.569038     1B1    -0.494099  

	Virtual:                                                              

	   4A1     0.187612     2B2     0.258040     3B2     0.798130  
	   5A1     0.866626     6A1     1.162673     2B1     1.200339  
	   4B2     1.252712     7A1     1.442058     1A2     1.479849  
	   3B1     1.676805     8A1     1.864596     5B2     1.949310  
	   6B2     2.482383     9A1     2.522317     4B1     3.297173  
	   2A2     3.350977    10A1     3.527414    11A1     3.879066  
	   7B2     4.162201  

	Final Occupation by Irrep:
	         A1    A2    B1    B2 
	DOCC [     3,    0,    1,    1 ]

  Energy converged.

  @RHF Final Energy:   -76.02704741713683

   => Energetics <=

    Nuclear Repulsion Energy =          9.3155831704295693
    One-Electron Energy =            -123.3643427386416676
    Two-Electron Energy =              38.0217121510752563
    DFT Functional Energy =             0.0000000000000000
    Empirical Dispersion Energy =       0.0000000000000000
    Total Energy =                    -76.0270474171368278

  ==> Properties <==

  Nuclear Dipole Moment: (a.u.)
     X:     0.0000      Y:     0.0000      Z:     0.9635

  Electronic Dipole Moment: (a.u.)
     X:     0.0000      Y:     0.0000      Z:    -0.1588

  Dipole Moment: (a.u.)
     X:     0.0000      Y:     0.0000      Z:     0.8047     Total:     0.8047

  Dipole Moment: (Debye)
     X:     0.0000      Y:     0.0000      Z:     2.0454     Total:     2.0454


  Saving occupied orbitals to File 180.

*** tstop() called on lawn-143-215-103-161.lawn.gatech.edu at Fri Apr 27 13:50:54 2012
Module time:
	user time   =       0.07 seconds =       0.00 minutes
	system time =       0.01 seconds =       0.00 minutes
	total time  =          0 seconds =       0.00 minutes
Total time:
	user time   =       0.76 seconds =       0.01 minutes
	system time =       0.08 seconds =       0.00 minutes
	total time  =          1 seconds =       0.02 minutes

*** tstart() called on lawn-143-215-103-161.lawn.gatech.edu
*** at Fri Apr 27 13:50:54 2012

 DERIV: Derivative code.
   by Justin Turney

  Cartesian Displacement SALCs
  By SALC:
  Number of SALCs: 3, nirreps: 1
  Project out translations: False
  Project out rotations: False
	irrep = 0, ncomponent = 1
		0: atom 0, direction z, coef 1.000000
	irrep = 0, ncomponent = 2
		0: atom 1, direction y, coef 0.707107
		1: atom 2, direction y, coef -0.707107
	irrep = 0, ncomponent = 2
		0: atom 1, direction z, coef 0.707107
		1: atom 2, direction z, coef 0.707107

  By Atomic Center:
  Number of atomic centers: 3
   Atomic Center 0:
	x component, size = 0
	y component, size = 0
	z component, size = 1
		0: salc 0, irrep 0, coef 1.000000
   Atomic Center 1:
	x component, size = 0
	y component, size = 1
		0: salc 1, irrep 0, coef 0.707107
	z component, size = 1
		0: salc 2, irrep 0, coef 0.707107
   Atomic Center 2:
	x component, size = 0
	y component, size = 1
		0: salc 1, irrep 0, coef -0.707107
	z component, size = 1
		0: salc 2, irrep 0, coef 0.707107

    Molecular point group: c2v

    Geometry (in Bohr), charge = 0, multiplicity = 1:

       Center              X                  Y                   Z       
    ------------   -----------------  -----------------  -----------------
           O          0.000000000000     0.000000000000    -0.122420385829
           H          0.000000000000    -1.411143379832     0.971450180700
           H          0.000000000000     1.411143379832     0.971450180700


  -Nuclear Repulsion Energy 1st Derivatives:
     Atom            X                  Y                   Z
    ------   -----------------  -----------------  -----------------
       1        0.000000000000     0.000000000000     3.074916220727
       2        0.000000000000     2.108936238194    -1.537458110364
       3        0.000000000000    -2.108936238194    -1.537458110364


  -One-electron contribution to gradient:
     Atom            X                  Y                   Z
    ------   -----------------  -----------------  -----------------
       1        0.000000000000     0.000000000000    -7.714053914210
       2        0.000000000000    -5.134593120415     3.857026957105
       3        0.000000000000     5.134593120415     3.857026957105


  -Lagrangian contribution to gradient:
     Atom            X                  Y                   Z
    ------   -----------------  -----------------  -----------------
       1        0.000000000000     0.000000000000     0.502055198529
       2        0.000000000000     0.305946646644    -0.251027599264
       3        0.000000000000    -0.305946646644    -0.251027599264


  -Two-electron contribution to gradient:
     Atom            X                  Y                   Z
    ------   -----------------  -----------------  -----------------
       1        0.000000000000     0.000000000000     4.138654862247
       2        0.000000000000     2.721388549198    -2.069327431124
       3        0.000000000000    -2.721388549198    -2.069327431124


  -Total gradient:
     Atom            X                  Y                   Z
    ------   -----------------  -----------------  -----------------
       1        0.000000000000     0.000000000000     0.001572367293
       2        0.000000000000     0.001678313622    -0.000786183646
       3        0.000000000000    -0.001678313622    -0.000786183646


*** tstop() called on lawn-143-215-103-161.lawn.gatech.edu at Fri Apr 27 13:50:54 2012
Module time:
	user time   =       0.16 seconds =       0.00 minutes
	system time =       0.01 seconds =       0.00 minutes
	total time  =          0 seconds =       0.00 minutes
Total time:
	user time   =       0.92 seconds =       0.02 minutes
	system time =       0.09 seconds =       0.00 minutes
	total time  =          1 seconds =       0.02 minutes

  //>>>>>>>>>>>>>>>>>>>>>>>>>>>>>>>>>>>//
  //    Loading displacement 5 of 6    //
  //<<<<<<<<<<<<<<<<<<<<<<<<<<<<<<<<<<<//

*** tstart() called on lawn-143-215-103-161.lawn.gatech.edu
*** at Fri Apr 27 13:50:54 2012

	There are an even number of electrons - assuming singlet.
	Specify the multiplicity with the MULTP option in the
	input if this is incorrect


         ---------------------------------------------------------
                                   SCF
            by Justin Turney, Rob Parrish, and Andy Simmonett
                              RHF Reference
                        1 Threads,    250 MiB Core
         ---------------------------------------------------------

  ==> Geometry <==

    Molecular point group: cs

    Geometry (in Angstrom), charge = 0, multiplicity = 1:

       Center              X                  Y                   Z       
    ------------   -----------------  -----------------  -----------------
           O          0.000000000000    -0.000178870675    -0.064782078048
           H          0.000000000000    -0.747189157578     0.512971760325
           H          0.000000000000     0.750027964991     0.515166829489

  Running in cs symmetry.

  Nuclear repulsion =    9.300783177627558

  Charge       = 0
  Multiplicity = 1
  Electrons    = 10
  Nalpha       = 5
  Nbeta        = 5

  ==> Algorithm <==

  SCF Algorithm Type is PK.
  DIIS enabled.
  MOM disabled.
  Fractional occupation disabled.
  Guess Type is CORE.
  Energy threshold   = 1.00e-08
  Density threshold  = 1.00e-08
  Integral threshold = 0.00e+00

  ==> Primary Basis <==

  Basis Set: CC-PVDZ
    Number of shells: 12
    Number of basis function: 24
    Number of Cartesian functions: 25
    Spherical Harmonics?: true
    Max angular momentum: 2

  ==> Pre-Iterations <==

  Minimum eigenvalue in the overlap matrix is 3.3419583870E-02.
  Using Symmetric Orthogonalization.
  SCF Guess: Core (One-Electron) Hamiltonian.

  Initial RHF energy:   -58.52679576460449

   -------------------------------------------------------
    Irrep   Nso     Nmo     Nalpha   Nbeta   Ndocc  Nsocc
   -------------------------------------------------------
     A'        18      18       4       4       4       0
     A"         6       6       1       1       1       0
   -------------------------------------------------------
    Total      24      24       5       5       5       0
   -------------------------------------------------------

  ==> Integral Setup <==

 MINTS: Wrapper to libmints.
   by Justin Turney

   Calculation information:
      Number of atoms:                   3
      Number of AO shells:              12
      Number of SO shells:              12
      Number of primitives:             32
      Number of atomic orbitals:        25
      Number of basis functions:        24

      Number of irreps:                  2
      Number of functions per irrep: [  18    6 ]

      Overlap, kinetic, potential, dipole, and quadrupole integrals
        stored in file 35.

      Computing two-electron integrals...done
      Computed 22139 non-zero two-electron integrals.
        Stored in file 33.

  ==> Iterations <==

                        Total Energy        Delta E     Density RMS

   @RHF iter   1:   -68.85805067586210   -1.03313e+01   0.00000e+00 
	Occupation by irrep:
	         A'    A" 
	DOCC [     5,    0 ]

   @RHF iter   2:   -69.96870352014486   -1.11065e+00   4.08802e-01 DIIS
	Occupation by irrep:
	         A'    A" 
	DOCC [     4,    1 ]

   @RHF iter   3:   -75.72717258055607   -5.75847e+00   3.85346e-01 DIIS
   @RHF iter   4:   -76.00108947206988   -2.73917e-01   1.32102e-02 DIIS
   @RHF iter   5:   -76.02676773469864   -2.56783e-02   6.15129e-03 DIIS
   @RHF iter   6:   -76.02700537601908   -2.37641e-04   9.28569e-04 DIIS
   @RHF iter   7:   -76.02704348212905   -3.81061e-05   3.26874e-04 DIIS
   @RHF iter   8:   -76.02704499677014   -1.51464e-06   7.24344e-05 DIIS
   @RHF iter   9:   -76.02704508130157   -8.45314e-08   1.23912e-05 DIIS
   @RHF iter  10:   -76.02704508195467   -6.53102e-10   1.63624e-06 DIIS
   @RHF iter  11:   -76.02704508199579   -4.11262e-11   3.03845e-07 DIIS
   @RHF iter  12:   -76.02704508199699   -1.19371e-12   4.22069e-08 DIIS

  ==> Post-Iterations <==

	Orbital Energies (a.u.)
	-----------------------

	Doubly Occupied:                                                      

	   1A'   -20.548452     2A'    -1.342298     3A'    -0.705343  
	   4A'    -0.568477     1A"    -0.493937  

	Virtual:                                                              

	   5A'     0.187399     6A'     0.257814     7A'     0.797480  
	   8A'     0.864598     9A'     1.162663     2A"     1.200386  
	  10A'     1.252653    11A'     1.443529     3A"     1.478988  
	   4A"     1.677279    12A'     1.865194    13A'     1.946804  
	  14A'     2.478660    15A'     2.518828     5A"     3.295023  
	   6A"     3.350121    16A'     3.524816    17A'     3.878546  
	  18A'     4.159704  

	Final Occupation by Irrep:
	         A'    A" 
	DOCC [     4,    1 ]

  Energy converged.

  @RHF Final Energy:   -76.02704508199699

   => Energetics <=

    Nuclear Repulsion Energy =          9.3007831776275580
    One-Electron Energy =            -123.3386422103875901
    Two-Electron Energy =              38.0108139507630511
    DFT Functional Energy =             0.0000000000000000
    Empirical Dispersion Energy =       0.0000000000000000
    Total Energy =                    -76.0270450819969739

  ==> Properties <==

  Nuclear Dipole Moment: (a.u.)
     X:     0.0000      Y:     0.0027      Z:     0.9635

  Electronic Dipole Moment: (a.u.)
     X:     0.0000      Y:    -0.0014      Z:    -0.1591

  Dipole Moment: (a.u.)
     X:     0.0000      Y:     0.0012      Z:     0.8045     Total:     0.8045

  Dipole Moment: (Debye)
     X:     0.0000      Y:     0.0032      Z:     2.0448     Total:     2.0448


  Saving occupied orbitals to File 180.

*** tstop() called on lawn-143-215-103-161.lawn.gatech.edu at Fri Apr 27 13:50:54 2012
Module time:
	user time   =       0.09 seconds =       0.00 minutes
	system time =       0.01 seconds =       0.00 minutes
	total time  =          0 seconds =       0.00 minutes
Total time:
	user time   =       1.01 seconds =       0.02 minutes
	system time =       0.10 seconds =       0.00 minutes
	total time  =          1 seconds =       0.02 minutes

*** tstart() called on lawn-143-215-103-161.lawn.gatech.edu
*** at Fri Apr 27 13:50:54 2012

 DERIV: Derivative code.
   by Justin Turney

  Cartesian Displacement SALCs
  By SALC:
  Number of SALCs: 6, nirreps: 1
  Project out translations: False
  Project out rotations: False
	irrep = 0, ncomponent = 1
		0: atom 0, direction y, coef 1.000000
	irrep = 0, ncomponent = 1
		0: atom 0, direction z, coef 1.000000
	irrep = 0, ncomponent = 1
		0: atom 1, direction y, coef 1.000000
	irrep = 0, ncomponent = 1
		0: atom 1, direction z, coef 1.000000
	irrep = 0, ncomponent = 1
		0: atom 2, direction y, coef 1.000000
	irrep = 0, ncomponent = 1
		0: atom 2, direction z, coef 1.000000

  By Atomic Center:
  Number of atomic centers: 3
   Atomic Center 0:
	x component, size = 0
	y component, size = 1
		0: salc 0, irrep 0, coef 1.000000
	z component, size = 1
		0: salc 1, irrep 0, coef 1.000000
   Atomic Center 1:
	x component, size = 0
	y component, size = 1
		0: salc 2, irrep 0, coef 1.000000
	z component, size = 1
		0: salc 3, irrep 0, coef 1.000000
   Atomic Center 2:
	x component, size = 0
	y component, size = 1
		0: salc 4, irrep 0, coef 1.000000
	z component, size = 1
		0: salc 5, irrep 0, coef 1.000000

    Molecular point group: cs

    Geometry (in Bohr), charge = 0, multiplicity = 1:

       Center              X                  Y                   Z       
    ------------   -----------------  -----------------  -----------------
           O          0.000000000000    -0.000338016589    -0.122420385829
           H          0.000000000000    -1.411982877283     0.969376140918
           H          0.000000000000     1.417347445839     0.973524220481


  -Nuclear Repulsion Energy 1st Derivatives:
     Atom            X                  Y                   Z
    ------   -----------------  -----------------  -----------------
       1        0.000000000000    -0.015839678691     3.060614517164
       2        0.000000000000     2.111930457429    -1.536613673704
       3        0.000000000000    -2.096090778739    -1.524000843459


  -One-electron contribution to gradient:
     Atom            X                  Y                   Z
    ------   -----------------  -----------------  -----------------
       1        0.000000000000     0.017923296287    -7.684556183018
       2        0.000000000000    -5.140157054938     3.851312054963
       3        0.000000000000     5.122233758651     3.833244128055


  -Lagrangian contribution to gradient:
     Atom            X                  Y                   Z
    ------   -----------------  -----------------  -----------------
       1        0.000000000000    -0.000735120752     0.500321380574
       2        0.000000000000     0.306130732673    -0.250630856642
       3        0.000000000000    -0.305395611922    -0.249690523931


  -Two-electron contribution to gradient:
     Atom            X                  Y                   Z
    ------   -----------------  -----------------  -----------------
       1        0.000000000000    -0.004978177901     4.123538833159
       2        0.000000000000     2.723965879949    -2.065429931525
       3        0.000000000000    -2.718987702048    -2.058108901633


  -Total gradient:
     Atom            X                  Y                   Z
    ------   -----------------  -----------------  -----------------
       1        0.000000000000    -0.003629681055    -0.000081452122
       2        0.000000000000     0.001870015114    -0.001362406909
       3        0.000000000000     0.001759665942     0.001443859031


*** tstop() called on lawn-143-215-103-161.lawn.gatech.edu at Fri Apr 27 13:50:54 2012
Module time:
	user time   =       0.20 seconds =       0.00 minutes
	system time =       0.01 seconds =       0.00 minutes
	total time  =          0 seconds =       0.00 minutes
Total time:
	user time   =       1.21 seconds =       0.02 minutes
	system time =       0.11 seconds =       0.00 minutes
	total time  =          1 seconds =       0.02 minutes

  //>>>>>>>>>>>>>>>>>>>>>>>>>>>>>>>>>>>//
  //    Loading displacement 6 of 6    //
  //<<<<<<<<<<<<<<<<<<<<<<<<<<<<<<<<<<<//

*** tstart() called on lawn-143-215-103-161.lawn.gatech.edu
*** at Fri Apr 27 13:50:54 2012

	There are an even number of electrons - assuming singlet.
	Specify the multiplicity with the MULTP option in the
	input if this is incorrect


         ---------------------------------------------------------
                                   SCF
            by Justin Turney, Rob Parrish, and Andy Simmonett
                              RHF Reference
                        1 Threads,    250 MiB Core
         ---------------------------------------------------------

  ==> Geometry <==

    Molecular point group: c2v

    Geometry (in Angstrom), charge = 0, multiplicity = 1:

       Center              X                  Y                   Z       
    ------------   -----------------  -----------------  -----------------
           O          0.000000000000     0.000000000000    -0.064782078048
           H          0.000000000000    -0.748608561284     0.514069294907
           H          0.000000000000     0.748608561284     0.514069294907

  Running in c2v symmetry.

  Nuclear repulsion =    9.300746177729851

  Charge       = 0
  Multiplicity = 1
  Electrons    = 10
  Nalpha       = 5
  Nbeta        = 5

  ==> Algorithm <==

  SCF Algorithm Type is PK.
  DIIS enabled.
  MOM disabled.
  Fractional occupation disabled.
  Guess Type is CORE.
  Energy threshold   = 1.00e-08
  Density threshold  = 1.00e-08
  Integral threshold = 0.00e+00

  ==> Primary Basis <==

  Basis Set: CC-PVDZ
    Number of shells: 12
    Number of basis function: 24
    Number of Cartesian functions: 25
    Spherical Harmonics?: true
    Max angular momentum: 2

  ==> Pre-Iterations <==

  Minimum eigenvalue in the overlap matrix is 3.3420439372E-02.
  Using Symmetric Orthogonalization.
  SCF Guess: Core (One-Electron) Hamiltonian.

  Initial RHF energy:   -58.52680542548310

   -------------------------------------------------------
    Irrep   Nso     Nmo     Nalpha   Nbeta   Ndocc  Nsocc
   -------------------------------------------------------
     A1        11      11       3       3       3       0
     A2         2       2       0       0       0       0
     B1         4       4       1       1       1       0
     B2         7       7       1       1       1       0
   -------------------------------------------------------
    Total      24      24       5       5       5       0
   -------------------------------------------------------

  ==> Integral Setup <==

 MINTS: Wrapper to libmints.
   by Justin Turney

   Calculation information:
      Number of atoms:                   3
      Number of AO shells:              12
      Number of SO shells:               9
      Number of primitives:             32
      Number of atomic orbitals:        25
      Number of basis functions:        24

      Number of irreps:                  4
      Number of functions per irrep: [  11    2    4    7 ]

      Overlap, kinetic, potential, dipole, and quadrupole integrals
        stored in file 35.

      Computing two-electron integrals...done
      Computed 11412 non-zero two-electron integrals.
        Stored in file 33.

  ==> Iterations <==

                        Total Energy        Delta E     Density RMS

   @RHF iter   1:   -68.85806205793193   -1.03313e+01   0.00000e+00 
	Occupation by irrep:
	         A1    A2    B1    B2 
	DOCC [     3,    0,    0,    2 ]

   @RHF iter   2:   -69.96875274245913   -1.11069e+00   5.62713e-01 DIIS
	Occupation by irrep:
	         A1    A2    B1    B2 
	DOCC [     3,    0,    1,    1 ]

   @RHF iter   3:   -75.72719564211512   -5.75844e+00   5.30426e-01 DIIS
   @RHF iter   4:   -76.00109961771831   -2.73904e-01   1.81833e-02 DIIS
   @RHF iter   5:   -76.02677618768531   -2.56766e-02   8.46688e-03 DIIS
   @RHF iter   6:   -76.02701377841666   -2.37591e-04   1.27811e-03 DIIS
   @RHF iter   7:   -76.02705187445110   -3.80960e-05   4.49874e-04 DIIS
   @RHF iter   8:   -76.02705338821197   -1.51376e-06   9.96799e-05 DIIS
   @RHF iter   9:   -76.02705347270822   -8.44962e-08   1.70485e-05 DIIS
   @RHF iter  10:   -76.02705347335973   -6.51511e-10   2.24947e-06 DIIS
   @RHF iter  11:   -76.02705347340080   -4.10694e-11   4.17873e-07 DIIS
   @RHF iter  12:   -76.02705347340195   -1.15108e-12   5.81942e-08 DIIS
   @RHF iter  13:   -76.02705347340195    0.00000e+00   1.26516e-08 DIIS

  ==> Post-Iterations <==

	Orbital Energies (a.u.)
	-----------------------

	Doubly Occupied:                                                      

	   1A1   -20.548453     2A1    -1.342294     1B2    -0.705342  
	   3A1    -0.568478     1B1    -0.493937  

	Virtual:                                                              

	   4A1     0.187402     2B2     0.257814     3B2     0.797523  
	   5A1     0.864547     6A1     1.162668     2B1     1.200390  
	   4B2     1.252645     7A1     1.443526     1A2     1.478983  
	   3B1     1.677277     8A1     1.865194     5B2     1.946804  
	   6B2     2.479243     9A1     2.518225     4B1     3.295095  
	   2A2     3.350044    10A1     3.524810    11A1     3.878564  
	   7B2     4.159678  

	Final Occupation by Irrep:
	         A1    A2    B1    B2 
	DOCC [     3,    0,    1,    1 ]

  Energy converged.

  @RHF Final Energy:   -76.02705347340195

   => Energetics <=

    Nuclear Repulsion Energy =          9.3007461777298506
    One-Electron Energy =            -123.3385927868203567
    Two-Electron Energy =              38.0107931356885587
    DFT Functional Energy =             0.0000000000000000
    Empirical Dispersion Energy =       0.0000000000000000
    Total Energy =                    -76.0270534734019492

  ==> Properties <==

  Nuclear Dipole Moment: (a.u.)
     X:     0.0000      Y:     0.0000      Z:     0.9635

  Electronic Dipole Moment: (a.u.)
     X:     0.0000      Y:     0.0000      Z:    -0.1591

  Dipole Moment: (a.u.)
     X:     0.0000      Y:     0.0000      Z:     0.8045     Total:     0.8045

  Dipole Moment: (Debye)
     X:     0.0000      Y:     0.0000      Z:     2.0448     Total:     2.0448


  Saving occupied orbitals to File 180.

*** tstop() called on lawn-143-215-103-161.lawn.gatech.edu at Fri Apr 27 13:50:54 2012
Module time:
	user time   =       0.08 seconds =       0.00 minutes
	system time =       0.01 seconds =       0.00 minutes
	total time  =          0 seconds =       0.00 minutes
Total time:
	user time   =       1.29 seconds =       0.02 minutes
	system time =       0.12 seconds =       0.00 minutes
	total time  =          1 seconds =       0.02 minutes

*** tstart() called on lawn-143-215-103-161.lawn.gatech.edu
*** at Fri Apr 27 13:50:54 2012

 DERIV: Derivative code.
   by Justin Turney

  Cartesian Displacement SALCs
  By SALC:
  Number of SALCs: 3, nirreps: 1
  Project out translations: False
  Project out rotations: False
	irrep = 0, ncomponent = 1
		0: atom 0, direction z, coef 1.000000
	irrep = 0, ncomponent = 2
		0: atom 1, direction y, coef 0.707107
		1: atom 2, direction y, coef -0.707107
	irrep = 0, ncomponent = 2
		0: atom 1, direction z, coef 0.707107
		1: atom 2, direction z, coef 0.707107

  By Atomic Center:
  Number of atomic centers: 3
   Atomic Center 0:
	x component, size = 0
	y component, size = 0
	z component, size = 1
		0: salc 0, irrep 0, coef 1.000000
   Atomic Center 1:
	x component, size = 0
	y component, size = 1
		0: salc 1, irrep 0, coef 0.707107
	z component, size = 1
		0: salc 2, irrep 0, coef 0.707107
   Atomic Center 2:
	x component, size = 0
	y component, size = 1
		0: salc 1, irrep 0, coef -0.707107
	z component, size = 1
		0: salc 2, irrep 0, coef 0.707107

    Molecular point group: c2v

    Geometry (in Bohr), charge = 0, multiplicity = 1:

       Center              X                  Y                   Z       
    ------------   -----------------  -----------------  -----------------
           O          0.000000000000     0.000000000000    -0.122420385829
           H          0.000000000000    -1.414665161561     0.971450180700
           H          0.000000000000     1.414665161561     0.971450180700


  -Nuclear Repulsion Energy 1st Derivatives:
     Atom            X                  Y                   Z
    ------   -----------------  -----------------  -----------------
       1        0.000000000000     0.000000000000     3.060573349415
       2        0.000000000000     2.103987302385    -1.530286674707
       3        0.000000000000    -2.103987302385    -1.530286674707


  -One-electron contribution to gradient:
     Atom            X                  Y                   Z
    ------   -----------------  -----------------  -----------------
       1        0.000000000000     0.000000000000    -7.684548270584
       2        0.000000000000    -5.131200300516     3.842274135292
       3        0.000000000000     5.131200300516     3.842274135292


  -Lagrangian contribution to gradient:
     Atom            X                  Y                   Z
    ------   -----------------  -----------------  -----------------
       1        0.000000000000     0.000000000000     0.500324362786
       2        0.000000000000     0.305765503229    -0.250162181393
       3        0.000000000000    -0.305765503229    -0.250162181393


  -Two-electron contribution to gradient:
     Atom            X                  Y                   Z
    ------   -----------------  -----------------  -----------------
       1        0.000000000000     0.000000000000     4.123550009947
       2        0.000000000000     2.721491095289    -2.061775004973
       3        0.000000000000    -2.721491095289    -2.061775004973


  -Total gradient:
     Atom            X                  Y                   Z
    ------   -----------------  -----------------  -----------------
       1        0.000000000000     0.000000000000    -0.000100548437
       2        0.000000000000     0.000043600387     0.000050274218
       3        0.000000000000    -0.000043600387     0.000050274218


*** tstop() called on lawn-143-215-103-161.lawn.gatech.edu at Fri Apr 27 13:50:55 2012
Module time:
	user time   =       0.16 seconds =       0.00 minutes
	system time =       0.01 seconds =       0.00 minutes
	total time  =          1 seconds =       0.02 minutes
Total time:
	user time   =       1.45 seconds =       0.02 minutes
	system time =       0.13 seconds =       0.00 minutes
	total time  =          2 seconds =       0.03 minutes

-------------------------------------------------------------

  Computing second-derivative from gradients using projected, 
  symmetry-adapted, cartesian coordinates (fd_freq_1).

  6 gradients passed in, including the reference geometry.
  Generating complete list of displacements from unique ones.

	Operation 2 takes plus displacements of irrep B2 to minus ones.

	  Irrep      Harmonic Frequency   
	                  (cm-1)          
	-----------------------------------------------
	     A1         1776.2407  
	     A1         4113.7745  
	     B2         4211.8175  
	-----------------------------------------------

	Normal Modes (mass-weighted).
	Molecular mass is   18.01056 amu.
	Frequencies in cm^-1; force constants in au.

   Frequency:       1776.24
   Force constant:   0.1194
	     X       Y       Z 	
  O 	   0.000   0.000  -0.270
  H 	   0.000   0.418   0.538
  H 	   0.000  -0.418   0.538

   Frequency:       4113.77
   Force constant:   0.6404
	     X       Y       Z 	
  O 	   0.000   0.000   0.198
  H 	   0.000   0.571  -0.394
  H 	   0.000  -0.571  -0.394

   Frequency:       4211.82
   Force constant:   0.6713
	     X       Y       Z 	
  O 	   0.000   0.270   0.000
  H 	   0.000  -0.539   0.416
  H 	   0.000  -0.539  -0.416

-------------------------------------------------------------

*** PSI4 exiting successfully. Buy a developer a beer!
