    -----------------------------------------------------------------------
          PSI4: An Open-Source Ab Initio Electronic Structure Package
                              PSI 4.0.0-beta1 Driver

               Git: Rev 8268e5ba0276eef671d5bc4a44cf66fa46407463

    J. M. Turney, A. C. Simmonett, R. M. Parrish, E. G. Hohenstein,
    F. A. Evangelista, J. T. Fermann, B. J. Mintz, L. A. Burns, J. J. Wilke,
    M. L. Abrams, N. J. Russ, M. L. Leininger, C. L. Janssen, E. T. Seidl,
    W. D. Allen, H. F. Schaefer, R. A. King, E. F. Valeev, C. D. Sherrill,
    and T. D. Crawford, WIREs Comput. Mol. Sci., (2011) (doi: 10.1002/wcms.93)

                         Additional Contributions by
    A. E. DePrince, M. Saitow, U. Bozkaya, A. Yu. Sokolov
    -----------------------------------------------------------------------


    Using LocalCommunicator (Number of processes = 1)

    Memory level set to 256.000 MB

  ==> Input File <==

--------------------------------------------------------------------------
#! ROHF-CCSD/cc-pVDZ $^{3}B@@1$ CH2 geometry optimization via analytic gradients

memory 250 mb

molecule ch2 {
  0 3
  C
  H 1 1.1
  H 1 1.1 2 109.0
}

set {
  reference rohf
  basis cc-pvdz
  # The next 3 options control the geometry optimization tolerances
  max_disp_g_convergence  1e-6
  max_force_g_convergence 1.0e-6
  max_energy_g_convergence    7
  e_convergence 10
  r_convergence 10
}

optimize('CCSD')

refnuc =   6.069997688500573                                                                    #TEST
refscf = -38.921394733562281                                                                    #TEST
refcor =  -0.120484098351036                                                                    #TEST
reftot = -39.041878831913316                                                                    #TEST
compare_values(refnuc, ch2.nuclear_repulsion_energy(),          5, "Nuclear repulsion energy")  #TEST
compare_values(refscf, get_variable("SCF total energy"),        6, "SCF energy")                #TEST
compare_values(refcor, get_variable("CCSD correlation energy"), 6, "CCSD contribution")         #TEST
compare_values(reftot, get_variable("Current energy"),          6, "Total energy")              #TEST
--------------------------------------------------------------------------

  Memory set to 250.000 MiB by Python script.

*** tstart() called on lawn-143-215-103-161.lawn.gatech.edu
*** at Fri Apr 27 14:17:29 2012


         ---------------------------------------------------------
                                   SCF
            by Justin Turney, Rob Parrish, and Andy Simmonett
                             ROHF Reference
                        1 Threads,    250 MiB Core
         ---------------------------------------------------------

  ==> Geometry <==

    Molecular point group: c2v

    Geometry (in Angstrom), charge = 0, multiplicity = 3:

       Center              X                  Y                   Z       
    ------------   -----------------  -----------------  -----------------
           C          0.000000000000     0.000000000000    -0.091864689759
           H          0.000000000000    -0.895527070192     0.546908561523
           H          0.000000000000     0.895527070192     0.546908561523

  Running in c2v symmetry.

  Nuclear repulsion =    6.068298005568227

  Charge       = 0
  Multiplicity = 3
  Electrons    = 8
  Nalpha       = 5
  Nbeta        = 3

  ==> Algorithm <==

  SCF Algorithm Type is PK.
  DIIS enabled.
  MOM disabled.
  Fractional occupation disabled.
  Guess Type is CORE.
  Energy threshold   = 1.00e-10
  Density threshold  = 1.00e-08
  Integral threshold = 0.00e+00

  ==> Primary Basis <==

  Basis Set: CC-PVDZ
    Number of shells: 12
    Number of basis function: 24
    Number of Cartesian functions: 25
    Spherical Harmonics?: true
    Max angular momentum: 2

  ==> Pre-Iterations <==

  Minimum eigenvalue in the overlap matrix is 2.9429630952E-02.
  Using Symmetric Orthogonalization.
  SCF Guess: Core (One-Electron) Hamiltonian.

  Initial ROHF energy:   -29.70353146102727

   -------------------------------------------------------
    Irrep   Nso     Nmo     Nalpha   Nbeta   Ndocc  Nsocc
   -------------------------------------------------------
     A1        11      11       3       2       2       1
     A2         2       2       0       0       0       0
     B1         4       4       1       0       0       1
     B2         7       7       1       1       1       0
   -------------------------------------------------------
    Total      24      24       5       3       3       2
   -------------------------------------------------------

  ==> Integral Setup <==

 MINTS: Wrapper to libmints.
   by Justin Turney

   Calculation information:
      Number of atoms:                   3
      Number of AO shells:              12
      Number of SO shells:               9
      Number of primitives:             32
      Number of atomic orbitals:        25
      Number of basis functions:        24

      Number of irreps:                  4
      Number of functions per irrep: [  11    2    4    7 ]

      Overlap, kinetic, potential, dipole, and quadrupole integrals
        stored in file 35.

      Computing two-electron integrals...done
      Computed 11412 non-zero two-electron integrals.
        Stored in file 33.

  ==> Iterations <==

                        Total Energy        Delta E     Density RMS

   @ROHF iter   1:   -35.12226710194875   -5.41874e+00   6.92965e-310 
	Occupation by irrep:
	         A1    A2    B1    B2 
	DOCC [     2,    0,    0,    1 ]
	SOCC [     1,    0,    0,    1 ]

   @ROHF iter   2:   -37.17354931472205   -2.05128e+00   1.19090e+00 DIIS
	Occupation by irrep:
	         A1    A2    B1    B2 
	DOCC [     2,    0,    0,    1 ]
	SOCC [     1,    0,    1,    0 ]

   @ROHF iter   3:   -38.86605964843650   -1.69251e+00   1.12882e+00 DIIS
   @ROHF iter   4:   -38.90586272674675   -3.98031e-02   1.81938e-02 DIIS
   @ROHF iter   5:   -38.91286377921129   -7.00105e-03   7.97037e-03 DIIS
   @ROHF iter   6:   -38.91336609450904   -5.02315e-04   3.10386e-03 DIIS
   @ROHF iter   7:   -38.91341343464231   -4.73401e-05   1.13059e-03 DIIS
   @ROHF iter   8:   -38.91341668120766   -3.24657e-06   3.23328e-04 DIIS
   @ROHF iter   9:   -38.91341670824414   -2.70365e-08   4.73433e-05 DIIS
   @ROHF iter  10:   -38.91341670972818   -1.48404e-09   1.05575e-05 DIIS
   @ROHF iter  11:   -38.91341670976068   -3.25002e-11   1.17024e-06 DIIS
   @ROHF iter  12:   -38.91341670976111   -4.26326e-13   1.09561e-07 DIIS
   @ROHF iter  13:   -38.91341670976109    1.42109e-14   1.38734e-08 DIIS

  ==> Post-Iterations <==

	Orbital Energies (a.u.)
	-----------------------

	Doubly Occupied:                                                      

	   1A1   -11.257006     2A1    -0.851944     1B2    -0.554736  

	Singly Occupied:                                                      

	   3A1    -0.184961     1B1    -0.105630  

	Virtual:                                                              

	   4A1     0.209540     2B2     0.270548     3B2     0.603731  
	   5A1     0.679389     2B1     0.715406     6A1     0.774250  
	   4B2     0.879515     7A1     1.032183     1A2     1.220500  
	   8A1     1.246508     3B1     1.312932     5B2     1.729503  
	   9A1     1.762980     6B2     1.957601     4B1     2.017391  
	   2A2     2.061326    10A1     2.332336    11A1     2.708686  
	   7B2     2.755914  

	Final Occupation by Irrep:
	         A1    A2    B1    B2 
	DOCC [     2,    0,    0,    1 ]
	SOCC [     1,    0,    1,    0 ]

  Energy converged.

  @ROHF Final Energy:   -38.91341670976109

   => Energetics <=

    Nuclear Repulsion Energy =          6.0682980055682272
    One-Electron Energy =             -63.7113218167299493
    Two-Electron Energy =              18.7296071014006245
    DFT Functional Energy =             0.0000000000000000
    Empirical Dispersion Energy =       0.0000000000000000
    Total Energy =                    -38.9134167097611012

  ==> Properties <==

  Nuclear Dipole Moment: (a.u.)
     X:     0.0000      Y:     0.0000      Z:     1.0254

  Electronic Dipole Moment: (a.u.)
     X:     0.0000      Y:     0.0000      Z:    -0.7765

  Dipole Moment: (a.u.)
     X:     0.0000      Y:     0.0000      Z:     0.2490     Total:     0.2490

  Dipole Moment: (Debye)
     X:     0.0000      Y:     0.0000      Z:     0.6328     Total:     0.6328


  Saving occupied orbitals to File 180.

*** tstop() called on lawn-143-215-103-161.lawn.gatech.edu at Fri Apr 27 14:17:29 2012
Module time:
	user time   =       0.08 seconds =       0.00 minutes
	system time =       0.01 seconds =       0.00 minutes
	total time  =          0 seconds =       0.00 minutes
Total time:
	user time   =       0.08 seconds =       0.00 minutes
	system time =       0.01 seconds =       0.00 minutes
	total time  =          0 seconds =       0.00 minutes

*** tstart() called on lawn-143-215-103-161.lawn.gatech.edu
*** at Fri Apr 27 14:17:29 2012


	**************************************************
	* TRANSQT2: Program to transform integrals from  *
	*           the SO basis to the MO basis.        *
	*                                                *
	*            Daniel, David, & Justin             *
	**************************************************


	Input parameters:
	-----------------
	Wave function   =	CCSD
	Backtransform   =	No
	Print Level     =	1
	Print TEIs      =	No
	Reference wfn   =	ROHF
	Derivative      =	First
	Delete TEI File =	Yes
	Memory (Mbytes) =	250.0
	Cache Level     =	2
	Cache Type      =	LRU
	Chkpt Parameters:
	--------------------
	Number of irreps     = 4
	Number of SOs        = 24
	Number of MOs        = 24
	Number of active MOs = 24

	Label	# SOs	# FZDC	# DOCC	# SOCC	# VIRT	# FZVR
	-----	-----	------	------	------	------	------
	 A1	   11	    0	    2	    1	    8	    0
	 A2	   2	    0	    0	    0	    2	    0
	 B1	   4	    0	    0	    1	    3	    0
	 B2	   7	    0	    1	    0	    6	    0

	Nuclear Rep. energy (chkpt) =      6.06829800556823
	SCF energy          (chkpt) =    -38.91341670976109

	Presorting SO-basis two-electron integrals.
	Sorting File: SO Ints (pq,rs) nbuckets = 1
	Frozen-core energy =    0.000000000000000
	Starting first half-transformation.
	Sorting half-transformed integrals.
	Starting second half-transformation.
	Two-electron integral transformation complete.

*** tstop() called on lawn-143-215-103-161.lawn.gatech.edu at Fri Apr 27 14:17:29 2012
Module time:
	user time   =       0.01 seconds =       0.00 minutes
	system time =       0.01 seconds =       0.00 minutes
	total time  =          0 seconds =       0.00 minutes
Total time:
	user time   =       0.09 seconds =       0.00 minutes
	system time =       0.02 seconds =       0.00 minutes
	total time  =          0 seconds =       0.00 minutes

*** tstart() called on lawn-143-215-103-161.lawn.gatech.edu
*** at Fri Apr 27 14:17:29 2012


			**************************
			*                        *
			*         CCSORT         *
			*                        *
			**************************


	Input parameters:
	-----------------
	Wave function   =	CCSD
	Reference wfn   =	ROHF
	Derivative      =	First
	Memory (Mbytes) =	250.0
	AO Basis        =	NONE
	Make (ab|cd)    =	True
	Make unpacked (ab|cd) =	True
	Cache Level     =	2
	Cache Type      =	LRU
	Local CC        =     No


	Chkpt Parameters:
	--------------------
	Number of irreps     = 4
	Number of MOs        = 24
	Number of active MOs = 24

	Label	# MOs	# FZDC	# DOCC	# SOCC	# VIRT	# FZVR
	-----	-----	------	------	------	------	------
	 A1	   11	    0	    2	    1	    8	    0
	 A2	   2	    0	    0	    0	    2	    0
	 B1	   4	    0	    0	    1	    3	    0
	 B2	   7	    0	    1	    0	    6	    0

	Nuclear Rep. energy (chkpt) =      6.06829800556823
	SCF energy          (chkpt) =    -38.91341670976109

	Size of irrep 0 of <ab|cd> integrals:      0.019 (MW) /      0.150 (MB)
	Size of irrep 1 of <ab|cd> integrals:      0.007 (MW) /      0.056 (MB)
	Size of irrep 2 of <ab|cd> integrals:      0.009 (MW) /      0.074 (MB)
	Size of irrep 3 of <ab|cd> integrals:      0.015 (MW) /      0.123 (MB)
	Total:                                     0.050 (MW) /      0.403 (MB)

	Size of irrep 0 of <ia|bc> integrals:      0.005 (MW) /      0.041 (MB)
	Size of irrep 1 of <ia|bc> integrals:      0.001 (MW) /      0.011 (MB)
	Size of irrep 2 of <ia|bc> integrals:      0.002 (MW) /      0.018 (MB)
	Size of irrep 3 of <ia|bc> integrals:      0.004 (MW) /      0.029 (MB)
	Total:                                     0.012 (MW) /      0.098 (MB)

	Size of irrep 0 of tIjAb amplitudes:       0.002 (MW) /      0.012 (MB)
	Size of irrep 1 of tIjAb amplitudes:       0.000 (MW) /      0.001 (MB)
	Size of irrep 2 of tIjAb amplitudes:       0.001 (MW) /      0.005 (MB)
	Size of irrep 3 of tIjAb amplitudes:       0.001 (MW) /      0.006 (MB)
	Total:                                     0.003 (MW) /      0.024 (MB)


	Sorting File: A <ij|kl> nbuckets = 1
	Sorting File: B <ab|cd> nbuckets = 1
	Sorting File: C <ia|jb> nbuckets = 1
	Sorting File: D <ij|ab> nbuckets = 1
	Sorting File: E <ai|jk> nbuckets = 1
	Sorting File: F <ia|bc> nbuckets = 1
	Sorting File: F <ai|bc> nbuckets = 1
	One-electron energy          =    -63.71132182273371
	Two-electron (AA) energy     =     10.60310902358352
	Two-electron (BB) energy     =      3.36788467676026
	Two-electron (AB) energy     =     11.74411025723248
	Two-electron energy          =     18.72960710740437
	Frozen-core energy (transqt) =      0.00000000000000
	Reference energy             =    -38.91341670976111

*** tstop() called on lawn-143-215-103-161.lawn.gatech.edu at Fri Apr 27 14:17:30 2012
Module time:
	user time   =       0.02 seconds =       0.00 minutes
	system time =       0.04 seconds =       0.00 minutes
	total time  =          1 seconds =       0.02 minutes
Total time:
	user time   =       0.11 seconds =       0.00 minutes
	system time =       0.06 seconds =       0.00 minutes
	total time  =          1 seconds =       0.02 minutes

*** tstart() called on lawn-143-215-103-161.lawn.gatech.edu
*** at Fri Apr 27 14:17:30 2012

			**************************
			*                        *
			*        CCENERGY        *
			*                        *
			**************************

	Nuclear Rep. energy (chkpt)   =    6.068298005568227
	SCF energy          (chkpt)   =  -38.913416709761094
	Reference energy    (file100) =  -38.913416709761108

	Input parameters:
	-----------------
	Wave function   =     CCSD
	Reference wfn   =    ROHF
	Memory (Mbytes) =     250.0
	Maxiter         =     50
	Convergence     =     1.0e-10
	Restart         =     No
	DIIS            =     Yes
	AO Basis        =     NONE
	ABCD            =     NEW
	Cache Level     =     2
	Cache Type      =     LOW
	Print Level     =     1
	Num. of threads =     1
	# Amps to Print =     10
	Print MP2 Amps? =     No
	Analyze T2 Amps =     No
	Print Pair Ener =     No
	Local CC        =     No
	SCS-MP2         =     False
	SCSN-MP2        =     False
	SCS-CCSD        =     False

	            Solving CC Amplitude Equations
	            ------------------------------
  Iter             Energy              RMS        T1Diag      D1Diag    New D1Diag
  ----     ---------------------    ---------   ----------  ----------  ----------
     0        -0.098257948094545    0.000e+00    0.000214    0.000590    0.000590
     1        -0.114024712720709    3.944e-02    0.003449    0.005288    0.005948
     2        -0.119008879141050    1.436e-02    0.005585    0.007649    0.010307
     3        -0.119291856214403    4.345e-03    0.006429    0.008895    0.012579
     4        -0.119304341095916    1.314e-03    0.006632    0.009335    0.013201
     5        -0.119303535421136    4.159e-04    0.006670    0.009408    0.013304
     6        -0.119307732010500    1.281e-04    0.006669    0.009396    0.013288
     7        -0.119308658577214    4.079e-05    0.006665    0.009384    0.013270
     8        -0.119308552975606    1.334e-05    0.006663    0.009377    0.013262
     9        -0.119308701406248    4.250e-06    0.006662    0.009375    0.013258
    10        -0.119308701159329    1.151e-06    0.006662    0.009374    0.013257
    11        -0.119308688436952    3.037e-07    0.006662    0.009374    0.013257
    12        -0.119308681433933    8.688e-08    0.006662    0.009374    0.013257
    13        -0.119308681641543    2.498e-08    0.006662    0.009374    0.013257
    14        -0.119308681972810    7.710e-09    0.006662    0.009374    0.013257
    15        -0.119308682096721    2.443e-09    0.006662    0.009374    0.013257
    16        -0.119308682096206    8.242e-10    0.006662    0.009374    0.013257
    17        -0.119308682085467    3.550e-10    0.006662    0.009374    0.013257
    18        -0.119308682078219    1.313e-10    0.006662    0.009374    0.013257
    19        -0.119308682078007    3.334e-11    0.006662    0.009374    0.013257

	Iterations converged.


	Largest TIA Amplitudes:
	          4  15         0.0215826410
	          1   1        -0.0176848474
	          4  17         0.0170452514
	          1   0         0.0144242527
	          1   2         0.0128468440
	          1   5        -0.0124387976
	          4  19         0.0090214255
	          2   1        -0.0070930391
	          2   0         0.0067850093
	          2   2         0.0059597449

	Largest Tia Amplitudes:
	          4  15        -0.0197722245
	          1   8        -0.0187474475
	          1   0        -0.0176377065
	          1   1         0.0167801888
	          1   2        -0.0125077087
	          4  17        -0.0076182845
	          4  16         0.0072511975
	          1   5         0.0059930984
	          4  18        -0.0053449427
	          1   4         0.0024958372

	Largest TIJAB Amplitudes:
	  3   2  11   1        -0.0266418198
	  3   2  11   2        -0.0225700916
	  4   3   9   2         0.0211489787
	  4   3  17  11        -0.0210422693
	  3   2  12   4        -0.0204593509
	  4   3  15  11        -0.0203552666
	  4   2  17   1        -0.0197228694
	  4   2  15   1        -0.0194374057
	  3   1  11   0        -0.0160979339
	  3   1  11   3         0.0151387994

	Largest Tijab Amplitudes:
	  4   1  14   9        -0.0110929736
	  4   1  16   8        -0.0087907237
	  4   1  16   0        -0.0072706773
	  4   1  15   0        -0.0071858800
	  4   1  15   8         0.0066460520
	  4   1  16   2        -0.0063930351
	  4   1  17   8         0.0062934346
	  4   1  15   3         0.0061492194
	  4   1  17   3         0.0060763624
	  4   1  16   4         0.0051237926

	Largest TIjAb Amplitudes:
	  4   4  17  17        -0.0340152469
	  4   4  15  15        -0.0327014414
	  4   4   2   2        -0.0299396762
	  3   1   2  14        -0.0298316932
	  4   4  16  16        -0.0280469718
	  4   4  17  15        -0.0279374994
	  4   4  15  17        -0.0275682237
	  3   1  12   8         0.0268619783
	  3   1   0  14        -0.0264800163
	  3   4  11  15        -0.0257934188

	SCF energy       (chkpt)              =  -38.913416709761094
	Reference energy (file100)            =  -38.913416709761108

	Opposite-spin CCSD correlation energy =    0.000000000000000
	Same-spin CCSD correlation energy     =    0.000000000000000
	CCSD correlation energy               =   -0.119308682078007
      * CCSD total energy                     =  -39.032725391839115


*** tstop() called on lawn-143-215-103-161.lawn.gatech.edu at Fri Apr 27 14:17:32 2012
Module time:
	user time   =       0.69 seconds =       0.01 minutes
	system time =       0.61 seconds =       0.01 minutes
	total time  =          2 seconds =       0.03 minutes
Total time:
	user time   =       0.80 seconds =       0.01 minutes
	system time =       0.67 seconds =       0.01 minutes
	total time  =          3 seconds =       0.05 minutes

*** tstart() called on lawn-143-215-103-161.lawn.gatech.edu
*** at Fri Apr 27 14:17:32 2012


			**************************
			*                        *
			*         CCHBAR         *
			*                        *
			**************************


*** tstop() called on lawn-143-215-103-161.lawn.gatech.edu at Fri Apr 27 14:17:32 2012
Module time:
	user time   =       0.07 seconds =       0.00 minutes
	system time =       0.07 seconds =       0.00 minutes
	total time  =          0 seconds =       0.00 minutes
Total time:
	user time   =       0.87 seconds =       0.01 minutes
	system time =       0.74 seconds =       0.01 minutes
	total time  =          3 seconds =       0.05 minutes

*** tstart() called on lawn-143-215-103-161.lawn.gatech.edu
*** at Fri Apr 27 14:17:32 2012


			**************************
			*        CCLAMBDA        *
			**************************


	Nuclear Rep. energy (chkpt)   =    6.068298005568227
	Reference           (chkpt)   = 1
	SCF energy          (chkpt)   =  -38.913416709761094
	Reference energy    (CC_INFO) =  -38.913416709761108
	CCSD energy         (CC_INFO) =   -0.119308682078007
	Total CCSD energy   (CC_INFO) =  -39.032725391839115

	Input parameters:
	-----------------
	Maxiter       =      50
	Convergence   = 1.0e-10
	Restart       =     No
	Cache Level   =     2
	Model III     =     No
	DIIS          =     Yes
	AO Basis      =     No
	ABCD            =     NEW
	Local CC        =     No
	Paramaters for left-handed eigenvectors:
	    Irr   Root  Ground-State?    EOM energy        R0
	  1   0     0        Yes       0.0000000000   1.0000000000
	Labels for eigenvector 1:
	LIA 0 -1, Lia 0 -1, LIJAB 0 -1, Lijab 0 -1, LIjAb 0 -1, 2LIjAb - LIjbA 0 -1
	Symmetry of left-hand state: B1
	Symmetry of left-hand eigenvector: A1

	          Solving Lambda Equations
	          ------------------------
	Iter     PseudoEnergy or Norm         RMS  
	----     ---------------------     --------
	   0        -0.116290928483567    0.000e+00
	   1        -0.113876427189396    6.153e-03
	   2        -0.113325648954576    1.605e-03
	   3        -0.113258055184661    5.524e-04
	   4        -0.113260321014058    1.850e-04
	   5        -0.113258727490199    6.339e-05
	   6        -0.113258005510552    1.836e-05
	   7        -0.113257895581902    6.586e-06
	   8        -0.113257842129064    2.186e-06
	   9        -0.113257825265540    6.585e-07
	  10        -0.113257824549044    1.888e-07
	  11        -0.113257825059234    6.133e-08
	  12        -0.113257825007056    1.701e-08
	  13        -0.113257824973090    4.866e-09
	  14        -0.113257824951577    1.475e-09
	  15        -0.113257824936184    5.241e-10
	  16        -0.113257824929672    1.721e-10
	  17        -0.113257824929178    6.178e-11

	Largest LIA Amplitudes:
	          4  15         0.0214352104
	          1   1        -0.0174888493
	          4  17         0.0161274912
	          1   0         0.0155593926
	          1   2         0.0131281104
	          1   5        -0.0120716289
	          4  19         0.0084898230
	          2   1        -0.0068888804
	          2   0         0.0068133208
	          3  12        -0.0058141822

	Largest Lia Amplitudes:
	          4  15        -0.0211781294
	          1   0        -0.0181871629
	          1   1         0.0174179708
	          1   8        -0.0165220546
	          1   2        -0.0139443556
	          4  17        -0.0103614097
	          4  16         0.0087243673
	          1   5         0.0058214352
	          4  18        -0.0055388804
	          1   4         0.0025373392

	Largest LIJAB Amplitudes:
	  3   2  11   1        -0.0263932115
	  3   2  11   2        -0.0222335549
	  4   3  17  11        -0.0206143643
	  4   3   9   2         0.0205197606
	  3   2  12   4        -0.0200544762
	  4   3  15  11        -0.0197526321
	  4   2  17   1        -0.0194108159
	  4   2  15   1        -0.0190614347
	  3   1  11   0        -0.0157240464
	  3   1  11   3         0.0150714055

	Largest Lijab Amplitudes:
	  4   1  14   9        -0.0105582448
	  4   1  16   8        -0.0083593459
	  4   1  16   0        -0.0071123604
	  4   1  15   0        -0.0066681641
	  4   1  15   8         0.0064628316
	  4   1  16   2        -0.0061687064
	  4   1  17   8         0.0060977679
	  4   1  15   3         0.0058801687
	  4   1  17   3         0.0057683610
	  4   1  16   4         0.0048721224

	Largest LIjAb Amplitudes:
	  4   4  17  17        -0.0332355679
	  4   4  15  15        -0.0321593065
	  4   4   2   2        -0.0289470013
	  3   1   2  14        -0.0287479129
	  4   4  17  15        -0.0275269885
	  4   4  16  16        -0.0272271549
	  4   4  15  17        -0.0269899158
	  3   1  12   8         0.0260664129
	  3   1   0  14        -0.0253941217
	  3   4  11  15        -0.0252412246

	Iterations converged.

	Overlap <L|e^T> =        0.94699936191

*** tstop() called on lawn-143-215-103-161.lawn.gatech.edu at Fri Apr 27 14:17:33 2012
Module time:
	user time   =       0.27 seconds =       0.00 minutes
	system time =       0.16 seconds =       0.00 minutes
	total time  =          1 seconds =       0.02 minutes
Total time:
	user time   =       1.14 seconds =       0.02 minutes
	system time =       0.90 seconds =       0.01 minutes
	total time  =          4 seconds =       0.07 minutes

*** tstart() called on lawn-143-215-103-161.lawn.gatech.edu
*** at Fri Apr 27 14:17:33 2012


			**************************
			*                        *
			*        CCDENSITY       *
			*                        *
			**************************


	Input parameters:
	-----------------
	Wave function    =   CCSD
	Reference wfn    =  ROHF
	Dertype          = 1
	Tolerance        = 1.0e-14
	Cache Level      = 2
	AO Basis         = No
	OPDM Only        = No
	Relax OPDM       = Yes
	Compute Xi       = No
	Use Zeta         = No
	Xi connected     = Yes

	Nuclear Rep. energy (chkpt)   =    6.068298005568227
	SCF energy          (chkpt)   =  -38.913416709761094
	Reference energy    (file100) =  -38.913416709761108
	CCSD energy         (CC_INFO) =   -0.119308682078007
	Total CCSD energy   (CC_INFO) =  -39.032725391839115
	Number of States = 1

	Ground?  State     EOM Energy       R0
	  Yes     0 A1    0.0000000000   1.00000000

	Energies re-computed from CC density:
	-------------------------------------
	One-electron energy        =    0.138509284896830
	IJKL energy                =    0.027930563621762
	IJKA energy                =   -0.000112175900331
	IJAB energy                =   -0.226586173589365
	IBJA energy                =   -0.091417130153357
	CIAB energy                =   -0.000164047808796
	ABCD energy                =    0.032530996856076
	Total two-electron energy  =   -0.257817966974012
	CCSD correlation energy    =   -0.119308682077181
	Total CCSD energy          =  -39.032725391838291

	Virial Theorem Data:
	--------------------
	Kinetic energy (ref)   =   38.844464513901627
	Kinetic energy (corr)  =    0.105983056264768
	Kinetic energy (total) =   38.950447570166396
	-V/T (ref)             =    2.001775084216563
	-V/T (corr)            =    2.125733549143445
	-V/T (total)           =    2.002112371662084

	Energies re-computed from Fock-adjusted CC density:
	---------------------------------------------------
	One-electron energy        =    0.083771427771882
	IJKL energy                =   -0.350145165021110
	IJKA energy                =    0.012489301849939
	IJAB energy                =   -0.226586173589365
	IBJA energy                =    0.328794977863865
	CIAB energy                =   -0.000164047808796
	ABCD energy                =    0.032530996856076
	Total two-electron energy  =   -0.203080109849390
	CCSD correlation energy    =   -0.119308682077509
	Total CCSD energy          =  -39.032725391838618

	Energies re-computed from Mulliken density:
	-------------------------------------------
	One-electron energy        =    0.083771427771882
	IJKL energy                =   -0.350145165021110
	IJKA energy                =    0.012489301849939
	IJAB energy                =   -0.219748749719450
	IBJA energy                =    0.321957553993951
	CIAB energy                =   -0.000164047808796
	ABCD energy                =    0.032530996856076
	Total two-electron energy  =   -0.203080109849390
	CCSD correlation energy    =   -0.119308682077508
	Total CCSD energy          =  -39.032725391838618

*** tstop() called on lawn-143-215-103-161.lawn.gatech.edu at Fri Apr 27 14:17:33 2012
Module time:
	user time   =       0.10 seconds =       0.00 minutes
	system time =       0.10 seconds =       0.00 minutes
	total time  =          0 seconds =       0.00 minutes
Total time:
	user time   =       1.24 seconds =       0.02 minutes
	system time =       1.00 seconds =       0.02 minutes
	total time  =          4 seconds =       0.07 minutes

*** tstart() called on lawn-143-215-103-161.lawn.gatech.edu
*** at Fri Apr 27 14:17:33 2012

 DERIV: Derivative code.
   by Justin Turney

  Cartesian Displacement SALCs
  By SALC:
  Number of SALCs: 3, nirreps: 1
  Project out translations: False
  Project out rotations: False
	irrep = 0, ncomponent = 1
		0: atom 0, direction z, coef 1.000000
	irrep = 0, ncomponent = 2
		0: atom 1, direction y, coef 0.707107
		1: atom 2, direction y, coef -0.707107
	irrep = 0, ncomponent = 2
		0: atom 1, direction z, coef 0.707107
		1: atom 2, direction z, coef 0.707107

  By Atomic Center:
  Number of atomic centers: 3
   Atomic Center 0:
	x component, size = 0
	y component, size = 0
	z component, size = 1
		0: salc 0, irrep 0, coef 1.000000
   Atomic Center 1:
	x component, size = 0
	y component, size = 1
		0: salc 1, irrep 0, coef 0.707107
	z component, size = 1
		0: salc 2, irrep 0, coef 0.707107
   Atomic Center 2:
	x component, size = 0
	y component, size = 1
		0: salc 1, irrep 0, coef -0.707107
	z component, size = 1
		0: salc 2, irrep 0, coef 0.707107

    Molecular point group: c2v

    Geometry (in Bohr), charge = 0, multiplicity = 3:

       Center              X                  Y                   Z       
    ------------   -----------------  -----------------  -----------------
           C          0.000000000000     0.000000000000    -0.173599104928
           H          0.000000000000    -1.692300907248     1.033507401008
           H          0.000000000000     1.692300907248     1.033507401008

	Presorting MO-basis TPDM.
	Sorting File: MO TPDM (AA|AA) nbuckets = 1
	Starting first half-transformation.
	Sorting half-transformed TPDM.
	First half integral transformation complete.


  -Nuclear Repulsion Energy 1st Derivatives:
     Atom            X                  Y                   Z
    ------   -----------------  -----------------  -----------------
       1        0.000000000000     0.000000000000     1.612694758402
       2        0.000000000000     1.217751421440    -0.806347379201
       3        0.000000000000    -1.217751421440    -0.806347379201


  -One-electron contribution to gradient:
     Atom            X                  Y                   Z
    ------   -----------------  -----------------  -----------------
       1        0.000000000000     0.000000000000    -4.390917046223
       2        0.000000000000    -2.838501659401     2.195458523112
       3        0.000000000000     2.838501659401     2.195458523112


  -Lagrangian contribution to gradient:
     Atom            X                  Y                   Z
    ------   -----------------  -----------------  -----------------
       1        0.000000000000     0.000000000000     0.302867131193
       2        0.000000000000     0.165400020897    -0.151433565596
       3        0.000000000000    -0.165400020897    -0.151433565596


  -Two-electron contribution to gradient:
     Atom            X                  Y                   Z
    ------   -----------------  -----------------  -----------------
       1        0.000000000000     0.000000000000     2.439525509667
       2        0.000000000000     1.470738532480    -1.219762754834
       3        0.000000000000    -1.470738532480    -1.219762754834


  -Total gradient:
     Atom            X                  Y                   Z
    ------   -----------------  -----------------  -----------------
       1        0.000000000000     0.000000000000    -0.035829646961
       2        0.000000000000     0.015388315416     0.017914823481
       3        0.000000000000    -0.015388315416     0.017914823481


*** tstop() called on lawn-143-215-103-161.lawn.gatech.edu at Fri Apr 27 14:17:33 2012
Module time:
	user time   =       0.18 seconds =       0.00 minutes
	system time =       0.03 seconds =       0.00 minutes
	total time  =          0 seconds =       0.00 minutes
Total time:
	user time   =       1.42 seconds =       0.02 minutes
	system time =       1.03 seconds =       0.02 minutes
	total time  =          4 seconds =       0.07 minutes

			----------------------------------
			 OPTKING: for geometry optimizations  
			  - R.A. King,  Bethel University   
			------------------------------------

	Internal coordinates to be generated automatically.
	Detected frag with atoms:  1 2 3
	---Fragment 1 Bond Connectivity---
	 1 : 2 3
	 2 : 1
	 3 : 1

	---Fragment 1 Geometry and Gradient---
	 C           0.0000000000        0.0000000000       -0.1735991049
	 H           0.0000000000       -1.6923009072        1.0335074010
	 H           0.0000000000        1.6923009072        1.0335074010
	             0.0000000000        0.0000000000       -0.0358296470
	             0.0000000000        0.0153883154        0.0179148235
	             0.0000000000       -0.0153883154        0.0179148235

	Previous optimization step data not found.  Starting new optimization.

	---Fragment 1 Intrafragment Coordinates---
	 - Coordinate -           - BOHR/RAD -       - ANG/DEG -
	 R(1,2)           =         2.078699	       1.100000
	 R(1,3)           =         2.078699	       1.100000
	 B(2,1,3)         =         1.902409	     109.000000

	Current energy   :       -39.0327253918

	Generating empirical Hessian (Schlegel '84) for each fragment.
	Going to follow RFO solution 1.
	Projected energy change by RFO approximation:        -0.0068907299

	Back-transformation to cartesian coordinates...
	Successfully converged to displaced geometry.

	---Internal Coordinate Step in ANG or DEG, aJ/ANG or AJ/DEG ---
	 ----------------------------------------------------------------------
	 Coordinate             Previous        Force       Change         New 
	 ----------             --------       ------       ------       ------
	 R(1,2)          =      1.100000     0.017505     0.003207     1.103207
	 R(1,3)          =      1.100000     0.017505     0.003207     1.103207
	 B(2,1,3)        =    109.000000     0.003720    16.119902   125.119902
	 ----------------------------------------------------------------------

  ==> Convergence Check <==

  Measures of convergence in internal coordinates in au.
  Criteria marked as inactive (o), active & met (*), and active & unmet ( ).
  --------------------------------------------------------------------------------------------- ~
   Step     Total Energy     Delta E     MAX Force     RMS Force      MAX Disp      RMS Disp    ~
  --------------------------------------------------------------------------------------------- ~
    Convergence Criteria    1.00e-07 *    1.00e-06 *             o    1.00e-06 *             o  ~
  --------------------------------------------------------------------------------------------- ~
      1     -39.03272539   -3.90e+01      4.89e-02      2.83e-02 o    2.81e-01      1.63e-01 o  ~
  ---------------------------------------------------------------------------------------------

	Writing optimization data to binary file.
	Structure for next step:
	Cartesian Geometry (au)
	    C     0.0000000000   0.0000000000  -0.0093274791
	    H     0.0000000000  -1.8502098832   0.9513715881
	    H     0.0000000000   1.8502098832   0.9513715881
			--------------------------
			 OPTKING Finished Execution 
			--------------------------

*** tstart() called on lawn-143-215-103-161.lawn.gatech.edu
*** at Fri Apr 27 14:17:34 2012


         ---------------------------------------------------------
                                   SCF
            by Justin Turney, Rob Parrish, and Andy Simmonett
                             ROHF Reference
                        1 Threads,    250 MiB Core
         ---------------------------------------------------------

  ==> Geometry <==

    Molecular point group: c2v

    Geometry (in Angstrom), charge = 0, multiplicity = 3:

       Center              X                  Y                   Z       
    ------------   -----------------  -----------------  -----------------
           C          0.000000000000     0.000000000000    -0.073112290691
           H          0.000000000000    -0.979088901313     0.435267759967
           H          0.000000000000     0.979088901313     0.435267759967

  Running in c2v symmetry.

  Nuclear repulsion =    6.026301139275994

  Charge       = 0
  Multiplicity = 3
  Electrons    = 8
  Nalpha       = 5
  Nbeta        = 3

  ==> Algorithm <==

  SCF Algorithm Type is PK.
  DIIS enabled.
  MOM disabled.
  Fractional occupation disabled.
  Guess Type is CORE.
  Energy threshold   = 1.00e-10
  Density threshold  = 1.00e-08
  Integral threshold = 0.00e+00

  ==> Primary Basis <==

  Basis Set: CC-PVDZ
    Number of shells: 12
    Number of basis function: 24
    Number of Cartesian functions: 25
    Spherical Harmonics?: true
    Max angular momentum: 2

  ==> Pre-Iterations <==

  Minimum eigenvalue in the overlap matrix is 3.2430312178E-02.
  Using Symmetric Orthogonalization.
  SCF Guess: Core (One-Electron) Hamiltonian.

  Initial ROHF energy:   -29.66128746671133

   -------------------------------------------------------
    Irrep   Nso     Nmo     Nalpha   Nbeta   Ndocc  Nsocc
   -------------------------------------------------------
     A1        11      11       3       2       2       1
     A2         2       2       0       0       0       0
     B1         4       4       1       0       0       1
     B2         7       7       1       1       1       0
   -------------------------------------------------------
    Total      24      24       5       3       3       2
   -------------------------------------------------------

  ==> Integral Setup <==

 MINTS: Wrapper to libmints.
   by Justin Turney

   Calculation information:
      Number of atoms:                   3
      Number of AO shells:              12
      Number of SO shells:               9
      Number of primitives:             32
      Number of atomic orbitals:        25
      Number of basis functions:        24

      Number of irreps:                  4
      Number of functions per irrep: [  11    2    4    7 ]

      Overlap, kinetic, potential, dipole, and quadrupole integrals
        stored in file 35.

      Computing two-electron integrals...done
      Computed 11412 non-zero two-electron integrals.
        Stored in file 33.

  ==> Iterations <==

                        Total Energy        Delta E     Density RMS

   @ROHF iter   1:   -35.18082331087966   -5.51954e+00   3.31183e-33 
	Occupation by irrep:
	         A1    A2    B1    B2 
	DOCC [     2,    0,    0,    1 ]
	SOCC [     1,    0,    0,    1 ]

   @ROHF iter   2:   -37.28557380975882   -2.10475e+00   1.19287e+00 DIIS
	Occupation by irrep:
	         A1    A2    B1    B2 
	DOCC [     2,    0,    0,    1 ]
	SOCC [     1,    0,    1,    0 ]

   @ROHF iter   3:   -38.87814257327368   -1.59257e+00   1.13110e+00 DIIS
   @ROHF iter   4:   -38.91399976560972   -3.58572e-02   1.89207e-02 DIIS
   @ROHF iter   5:   -38.92042722993051   -6.42746e-03   7.71135e-03 DIIS
   @ROHF iter   6:   -38.92089985109418   -4.72621e-04   2.86324e-03 DIIS
   @ROHF iter   7:   -38.92094737017967   -4.75191e-05   1.08614e-03 DIIS
   @ROHF iter   8:   -38.92095112420449   -3.75402e-06   3.48449e-04 DIIS
   @ROHF iter   9:   -38.92095114795499   -2.37505e-08   4.38882e-05 DIIS
   @ROHF iter  10:   -38.92095114910659   -1.15161e-09   8.70000e-06 DIIS
   @ROHF iter  11:   -38.92095114913997   -3.33742e-11   1.31564e-06 DIIS
   @ROHF iter  12:   -38.92095114914100   -1.03739e-12   1.37129e-07 DIIS
   @ROHF iter  13:   -38.92095114914105   -4.26326e-14   2.15982e-08 DIIS

  ==> Post-Iterations <==

	Orbital Energies (a.u.)
	-----------------------

	Doubly Occupied:                                                      

	   1A1   -11.253504     2A1    -0.843971     1B2    -0.579487  

	Singly Occupied:                                                      

	   3A1    -0.159393     1B1    -0.104264  

	Virtual:                                                              

	   4A1     0.208114     2B2     0.266573     5A1     0.639090  
	   3B2     0.655252     2B1     0.718116     6A1     0.736235  
	   4B2     0.894883     7A1     1.019971     1A2     1.198612  
	   8A1     1.317275     3B1     1.347588     5B2     1.605165  
	   9A1     1.747708     4B1     1.923728     6B2     2.035841  
	   2A2     2.140127    10A1     2.271817     7B2     2.726231  
	  11A1     2.792681  

	Final Occupation by Irrep:
	         A1    A2    B1    B2 
	DOCC [     2,    0,    0,    1 ]
	SOCC [     1,    0,    1,    0 ]

  Energy converged.

  @ROHF Final Energy:   -38.92095114914105

   => Energetics <=

    Nuclear Repulsion Energy =          6.0263011392759944
    One-Electron Energy =             -63.6541582081121362
    Two-Electron Energy =              18.7069059196950995
    DFT Functional Energy =             0.0000000000000000
    Empirical Dispersion Energy =       0.0000000000000000
    Total Energy =                    -38.9209511491410467

  ==> Properties <==

  Nuclear Dipole Moment: (a.u.)
     X:     0.0000      Y:     0.0000      Z:     0.8161

  Electronic Dipole Moment: (a.u.)
     X:     0.0000      Y:     0.0000      Z:    -0.5866

  Dipole Moment: (a.u.)
     X:     0.0000      Y:     0.0000      Z:     0.2295     Total:     0.2295

  Dipole Moment: (Debye)
     X:     0.0000      Y:     0.0000      Z:     0.5832     Total:     0.5832


  Saving occupied orbitals to File 180.

*** tstop() called on lawn-143-215-103-161.lawn.gatech.edu at Fri Apr 27 14:17:34 2012
Module time:
	user time   =       0.09 seconds =       0.00 minutes
	system time =       0.01 seconds =       0.00 minutes
	total time  =          0 seconds =       0.00 minutes
Total time:
	user time   =       1.51 seconds =       0.03 minutes
	system time =       1.04 seconds =       0.02 minutes
	total time  =          5 seconds =       0.08 minutes

*** tstart() called on lawn-143-215-103-161.lawn.gatech.edu
*** at Fri Apr 27 14:17:34 2012


	**************************************************
	* TRANSQT2: Program to transform integrals from  *
	*           the SO basis to the MO basis.        *
	*                                                *
	*            Daniel, David, & Justin             *
	**************************************************


	Input parameters:
	-----------------
	Wave function   =	CCSD
	Backtransform   =	No
	Print Level     =	1
	Print TEIs      =	No
	Reference wfn   =	ROHF
	Derivative      =	First
	Delete TEI File =	Yes
	Memory (Mbytes) =	250.0
	Cache Level     =	2
	Cache Type      =	LRU
	Chkpt Parameters:
	--------------------
	Number of irreps     = 4
	Number of SOs        = 24
	Number of MOs        = 24
	Number of active MOs = 24

	Label	# SOs	# FZDC	# DOCC	# SOCC	# VIRT	# FZVR
	-----	-----	------	------	------	------	------
	 A1	   11	    0	    2	    1	    8	    0
	 A2	   2	    0	    0	    0	    2	    0
	 B1	   4	    0	    0	    1	    3	    0
	 B2	   7	    0	    1	    0	    6	    0

	Nuclear Rep. energy (chkpt) =      6.02630113927599
	SCF energy          (chkpt) =    -38.92095114914105

	Presorting SO-basis two-electron integrals.
	Sorting File: SO Ints (pq,rs) nbuckets = 1
	Frozen-core energy =    0.000000000000000
	Starting first half-transformation.
	Sorting half-transformed integrals.
	Starting second half-transformation.
	Two-electron integral transformation complete.

*** tstop() called on lawn-143-215-103-161.lawn.gatech.edu at Fri Apr 27 14:17:34 2012
Module time:
	user time   =       0.01 seconds =       0.00 minutes
	system time =       0.01 seconds =       0.00 minutes
	total time  =          0 seconds =       0.00 minutes
Total time:
	user time   =       1.52 seconds =       0.03 minutes
	system time =       1.05 seconds =       0.02 minutes
	total time  =          5 seconds =       0.08 minutes

*** tstart() called on lawn-143-215-103-161.lawn.gatech.edu
*** at Fri Apr 27 14:17:34 2012


			**************************
			*                        *
			*         CCSORT         *
			*                        *
			**************************


	Input parameters:
	-----------------
	Wave function   =	CCSD
	Reference wfn   =	ROHF
	Derivative      =	First
	Memory (Mbytes) =	250.0
	AO Basis        =	NONE
	Make (ab|cd)    =	True
	Make unpacked (ab|cd) =	True
	Cache Level     =	2
	Cache Type      =	LRU
	Local CC        =     No


	Chkpt Parameters:
	--------------------
	Number of irreps     = 4
	Number of MOs        = 24
	Number of active MOs = 24

	Label	# MOs	# FZDC	# DOCC	# SOCC	# VIRT	# FZVR
	-----	-----	------	------	------	------	------
	 A1	   11	    0	    2	    1	    8	    0
	 A2	   2	    0	    0	    0	    2	    0
	 B1	   4	    0	    0	    1	    3	    0
	 B2	   7	    0	    1	    0	    6	    0

	Nuclear Rep. energy (chkpt) =      6.02630113927599
	SCF energy          (chkpt) =    -38.92095114914105

	Size of irrep 0 of <ab|cd> integrals:      0.019 (MW) /      0.150 (MB)
	Size of irrep 1 of <ab|cd> integrals:      0.007 (MW) /      0.056 (MB)
	Size of irrep 2 of <ab|cd> integrals:      0.009 (MW) /      0.074 (MB)
	Size of irrep 3 of <ab|cd> integrals:      0.015 (MW) /      0.123 (MB)
	Total:                                     0.050 (MW) /      0.403 (MB)

	Size of irrep 0 of <ia|bc> integrals:      0.005 (MW) /      0.041 (MB)
	Size of irrep 1 of <ia|bc> integrals:      0.001 (MW) /      0.011 (MB)
	Size of irrep 2 of <ia|bc> integrals:      0.002 (MW) /      0.018 (MB)
	Size of irrep 3 of <ia|bc> integrals:      0.004 (MW) /      0.029 (MB)
	Total:                                     0.012 (MW) /      0.098 (MB)

	Size of irrep 0 of tIjAb amplitudes:       0.002 (MW) /      0.012 (MB)
	Size of irrep 1 of tIjAb amplitudes:       0.000 (MW) /      0.001 (MB)
	Size of irrep 2 of tIjAb amplitudes:       0.001 (MW) /      0.005 (MB)
	Size of irrep 3 of tIjAb amplitudes:       0.001 (MW) /      0.006 (MB)
	Total:                                     0.003 (MW) /      0.024 (MB)


	Sorting File: A <ij|kl> nbuckets = 1
	Sorting File: B <ab|cd> nbuckets = 1
	Sorting File: C <ia|jb> nbuckets = 1
	Sorting File: D <ij|ab> nbuckets = 1
	Sorting File: E <ai|jk> nbuckets = 1
	Sorting File: F <ia|bc> nbuckets = 1
	Sorting File: F <ai|bc> nbuckets = 1
	One-electron energy          =    -63.65415822632249
	Two-electron (AA) energy     =     10.58709072750997
	Two-electron (BB) energy     =      3.35648361726955
	Two-electron (AB) energy     =     11.73511876551568
	Two-electron energy          =     18.70690593790544
	Frozen-core energy (transqt) =      0.00000000000000
	Reference energy             =    -38.92095114914105

*** tstop() called on lawn-143-215-103-161.lawn.gatech.edu at Fri Apr 27 14:17:34 2012
Module time:
	user time   =       0.02 seconds =       0.00 minutes
	system time =       0.04 seconds =       0.00 minutes
	total time  =          0 seconds =       0.00 minutes
Total time:
	user time   =       1.54 seconds =       0.03 minutes
	system time =       1.09 seconds =       0.02 minutes
	total time  =          5 seconds =       0.08 minutes

*** tstart() called on lawn-143-215-103-161.lawn.gatech.edu
*** at Fri Apr 27 14:17:34 2012

			**************************
			*                        *
			*        CCENERGY        *
			*                        *
			**************************

	Nuclear Rep. energy (chkpt)   =    6.026301139275994
	SCF energy          (chkpt)   =  -38.920951149141047
	Reference energy    (file100) =  -38.920951149141054

	Input parameters:
	-----------------
	Wave function   =     CCSD
	Reference wfn   =    ROHF
	Memory (Mbytes) =     250.0
	Maxiter         =     50
	Convergence     =     1.0e-10
	Restart         =     No
	DIIS            =     Yes
	AO Basis        =     NONE
	ABCD            =     NEW
	Cache Level     =     2
	Cache Type      =     LOW
	Print Level     =     1
	Num. of threads =     1
	# Amps to Print =     10
	Print MP2 Amps? =     No
	Analyze T2 Amps =     No
	Print Pair Ener =     No
	Local CC        =     No
	SCS-MP2         =     False
	SCSN-MP2        =     False
	SCS-CCSD        =     False

	            Solving CC Amplitude Equations
	            ------------------------------
  Iter             Energy              RMS        T1Diag      D1Diag    New D1Diag
  ----     ---------------------    ---------   ----------  ----------  ----------
     0        -0.098987107086755    3.334e-11    0.000336    0.000940    0.000940
     1        -0.114814917286558    3.956e-02    0.003488    0.004674    0.005920
     2        -0.119804280690441    1.455e-02    0.005799    0.007268    0.010279
     3        -0.120098325634142    4.615e-03    0.006873    0.008920    0.012615
     4        -0.120113286374813    1.440e-03    0.007209    0.009393    0.013284
     5        -0.120109861413804    4.200e-04    0.007277    0.009454    0.013370
     6        -0.120113727699101    1.293e-04    0.007286    0.009443    0.013354
     7        -0.120114641290939    3.874e-05    0.007284    0.009430    0.013337
     8        -0.120114473947589    1.217e-05    0.007283    0.009425    0.013329
     9        -0.120114636603795    3.847e-06    0.007282    0.009422    0.013325
    10        -0.120114640030429    9.698e-07    0.007282    0.009422    0.013325
    11        -0.120114628245641    2.218e-07    0.007282    0.009422    0.013325
    12        -0.120114622436029    5.566e-08    0.007282    0.009422    0.013325
    13        -0.120114622284496    1.649e-08    0.007282    0.009422    0.013325
    14        -0.120114622428460    5.116e-09    0.007282    0.009422    0.013325
    15        -0.120114622495705    1.672e-09    0.007282    0.009422    0.013325
    16        -0.120114622507384    5.631e-10    0.007282    0.009422    0.013325
    17        -0.120114622509251    2.054e-10    0.007282    0.009422    0.013325
    18        -0.120114622507969    7.951e-11    0.007282    0.009422    0.013325

	Iterations converged.


	Largest TIA Amplitudes:
	          1   1         0.0242158553
	          1   0         0.0196877302
	          4  15         0.0175055001
	          4  17         0.0151145828
	          1   5        -0.0125231286
	          2   0         0.0121179997
	          2   1         0.0115179402
	          4  19         0.0080788193
	          1   3        -0.0078590724
	          1   2         0.0050470760

	Largest Tia Amplitudes:
	          1   1        -0.0240301540
	          1   0        -0.0228041775
	          1   8        -0.0188430993
	          4  15        -0.0178649808
	          4  17        -0.0087554523
	          4  18         0.0074088768
	          4  16         0.0070758451
	          1   5         0.0063132930
	          1   2        -0.0041680588
	          1   3         0.0031930583

	Largest TIJAB Amplitudes:
	  3   2  11   2        -0.0337842966
	  3   2  12   4        -0.0225239119
	  4   3   9   1         0.0218417731
	  4   3  17  11        -0.0208055006
	  4   3  15  11        -0.0204187228
	  4   2  15   1         0.0172119417
	  4   2  17   1         0.0170839250
	  3   1  11   0        -0.0160578509
	  3   1  11   3         0.0152822131
	  4   2  16   2        -0.0148176961

	Largest Tijab Amplitudes:
	  4   1  14   9        -0.0109882370
	  4   1  16   8        -0.0082063059
	  4   1  15   0        -0.0074507781
	  4   1  16   0        -0.0065150860
	  4   1  17   8         0.0062095613
	  4   1  15   3         0.0061946025
	  4   1  17   3         0.0060268058
	  4   1  15   8         0.0057406473
	  4   1  17   0        -0.0041544435
	  4   1  16   2        -0.0040294780

	Largest TIjAb Amplitudes:
	  4   4  17  17        -0.0343894114
	  4   4   1   1        -0.0309617356
	  3   1   1  14        -0.0308344205
	  3   1   0  14        -0.0301629502
	  4   4  15  15        -0.0285688979
	  3   1  12   8         0.0277084003
	  2   1   4   8         0.0271589032
	  3   1  11   0        -0.0260418219
	  4   1   9  14         0.0259852691
	  2   1  12  14         0.0259029550

	SCF energy       (chkpt)              =  -38.920951149141047
	Reference energy (file100)            =  -38.920951149141054

	Opposite-spin CCSD correlation energy =    0.000000000000000
	Same-spin CCSD correlation energy     =    0.000000000000000
	CCSD correlation energy               =   -0.120114622507969
      * CCSD total energy                     =  -39.041065771649023


*** tstop() called on lawn-143-215-103-161.lawn.gatech.edu at Fri Apr 27 14:17:38 2012
Module time:
	user time   =       0.68 seconds =       0.01 minutes
	system time =       0.62 seconds =       0.01 minutes
	total time  =          4 seconds =       0.07 minutes
Total time:
	user time   =       2.23 seconds =       0.04 minutes
	system time =       1.71 seconds =       0.03 minutes
	total time  =          9 seconds =       0.15 minutes

*** tstart() called on lawn-143-215-103-161.lawn.gatech.edu
*** at Fri Apr 27 14:17:38 2012


			**************************
			*                        *
			*         CCHBAR         *
			*                        *
			**************************


*** tstop() called on lawn-143-215-103-161.lawn.gatech.edu at Fri Apr 27 14:17:38 2012
Module time:
	user time   =       0.07 seconds =       0.00 minutes
	system time =       0.07 seconds =       0.00 minutes
	total time  =          0 seconds =       0.00 minutes
Total time:
	user time   =       2.30 seconds =       0.04 minutes
	system time =       1.78 seconds =       0.03 minutes
	total time  =          9 seconds =       0.15 minutes

*** tstart() called on lawn-143-215-103-161.lawn.gatech.edu
*** at Fri Apr 27 14:17:38 2012


			**************************
			*        CCLAMBDA        *
			**************************


	Nuclear Rep. energy (chkpt)   =    6.026301139275994
	Reference           (chkpt)   = 1
	SCF energy          (chkpt)   =  -38.920951149141047
	Reference energy    (CC_INFO) =  -38.920951149141054
	CCSD energy         (CC_INFO) =   -0.120114622507969
	Total CCSD energy   (CC_INFO) =  -39.041065771649023

	Input parameters:
	-----------------
	Maxiter       =      50
	Convergence   = 1.0e-10
	Restart       =     No
	Cache Level   =     2
	Model III     =     No
	DIIS          =     Yes
	AO Basis      =     No
	ABCD            =     NEW
	Local CC        =     No
	Paramaters for left-handed eigenvectors:
	    Irr   Root  Ground-State?    EOM energy        R0
	  1   0     0        Yes       0.0000000000   1.0000000000
	Labels for eigenvector 1:
	LIA 0 -1, Lia 0 -1, LIJAB 0 -1, Lijab 0 -1, LIjAb 0 -1, 2LIjAb - LIjbA 0 -1
	Symmetry of left-hand state: B1
	Symmetry of left-hand eigenvector: A1

	          Solving Lambda Equations
	          ------------------------
	Iter     PseudoEnergy or Norm         RMS  
	----     ---------------------     --------
	   0        -0.116588519581667    6.178e-11
	   1        -0.114161529408789    5.947e-03
	   2        -0.113614026014452    1.631e-03
	   3        -0.113548812447266    5.717e-04
	   4        -0.113551904165631    1.761e-04
	   5        -0.113550482324570    5.983e-05
	   6        -0.113549484737898    1.860e-05
	   7        -0.113549269239394    6.460e-06
	   8        -0.113549234727159    2.055e-06
	   9        -0.113549230050306    6.174e-07
	  10        -0.113549231241183    1.714e-07
	  11        -0.113549232198558    4.930e-08
	  12        -0.113549232135168    1.336e-08
	  13        -0.113549232056228    4.002e-09
	  14        -0.113549232039665    1.173e-09
	  15        -0.113549232032174    3.679e-10
	  16        -0.113549232025557    1.225e-10
	  17        -0.113549232024596    4.003e-11

	Largest LIA Amplitudes:
	          1   1         0.0242153264
	          1   0         0.0209922886
	          4  15         0.0176500972
	          4  17         0.0144805155
	          1   5        -0.0121646339
	          2   0         0.0121403038
	          2   1         0.0110563260
	          1   3        -0.0080286436
	          4  19         0.0077290990
	          1   2         0.0055946248

	Largest Lia Amplitudes:
	          1   1        -0.0254392024
	          1   0        -0.0237698392
	          4  15        -0.0188744622
	          1   8        -0.0174230539
	          4  17        -0.0113901809
	          4  16         0.0081328341
	          4  18         0.0076039233
	          1   5         0.0062116826
	          1   2        -0.0053952320
	          1   3         0.0043784117

	Largest LIJAB Amplitudes:
	  3   2  11   2        -0.0332895326
	  3   2  12   4        -0.0220620965
	  4   3   9   1         0.0212130461
	  4   3  17  11        -0.0203666936
	  4   3  15  11        -0.0198069968
	  4   2  15   1         0.0169383730
	  4   2  17   1         0.0168190474
	  3   1  11   0        -0.0156095572
	  3   1  11   3         0.0151944419
	  4   2  16   2        -0.0144548524

	Largest Lijab Amplitudes:
	  4   1  14   9        -0.0104554661
	  4   1  16   8        -0.0078166367
	  4   1  15   0        -0.0068675047
	  4   1  16   0        -0.0063902995
	  4   1  17   8         0.0060562451
	  4   1  15   3         0.0058703241
	  4   1  17   3         0.0056884267
	  4   1  15   8         0.0056618867
	  4   1  16   2        -0.0038069784
	  4   1  17   0        -0.0037426381

	Largest LIjAb Amplitudes:
	  4   4  17  17        -0.0336504151
	  4   4   1   1        -0.0299174199
	  3   1   1  14        -0.0295157295
	  3   1   0  14        -0.0288052081
	  4   4  15  15        -0.0280865879
	  3   1  12   8         0.0268723581
	  2   1   4   8         0.0262809060
	  3   1  11   0        -0.0255725584
	  3   4  11  15        -0.0251314198
	  4   1   9  14         0.0250824859

	Iterations converged.

	Overlap <L|e^T> =        0.94628437766

*** tstop() called on lawn-143-215-103-161.lawn.gatech.edu at Fri Apr 27 14:17:39 2012
Module time:
	user time   =       0.26 seconds =       0.00 minutes
	system time =       0.16 seconds =       0.00 minutes
	total time  =          1 seconds =       0.02 minutes
Total time:
	user time   =       2.56 seconds =       0.04 minutes
	system time =       1.94 seconds =       0.03 minutes
	total time  =         10 seconds =       0.17 minutes

*** tstart() called on lawn-143-215-103-161.lawn.gatech.edu
*** at Fri Apr 27 14:17:39 2012


			**************************
			*                        *
			*        CCDENSITY       *
			*                        *
			**************************


	Input parameters:
	-----------------
	Wave function    =   CCSD
	Reference wfn    =  ROHF
	Dertype          = 1
	Tolerance        = 1.0e-14
	Cache Level      = 2
	AO Basis         = No
	OPDM Only        = No
	Relax OPDM       = Yes
	Compute Xi       = No
	Use Zeta         = No
	Xi connected     = Yes

	Nuclear Rep. energy (chkpt)   =    6.026301139275994
	SCF energy          (chkpt)   =  -38.920951149141047
	Reference energy    (file100) =  -38.920951149141054
	CCSD energy         (CC_INFO) =   -0.120114622507969
	Total CCSD energy   (CC_INFO) =  -39.041065771649023
	Number of States = 1

	Ground?  State     EOM Energy       R0
	  Yes     0 A1    0.0000000000   1.00000000

	Energies re-computed from CC density:
	-------------------------------------
	One-electron energy        =    0.138667616947333
	IJKL energy                =    0.027956585129736
	IJKA energy                =   -0.000045305748728
	IJAB energy                =   -0.227166217375168
	IBJA energy                =   -0.092120653178621
	CIAB energy                =    0.000021747455819
	ABCD energy                =    0.032571604263853
	Total two-electron energy  =   -0.258782239453108
	CCSD correlation energy    =   -0.120114622505776
	Total CCSD energy          =  -39.041065771646828

	Virial Theorem Data:
	--------------------
	Kinetic energy (ref)   =   38.826713633987268
	Kinetic energy (corr)  =    0.105794777286403
	Kinetic energy (total) =   38.932508411273673
	-V/T (ref)             =    2.002427130867736
	-V/T (corr)            =    2.135354935176049
	-V/T (total)           =    2.002788347445497

	Energies re-computed from Fock-adjusted CC density:
	---------------------------------------------------
	One-electron energy        =    0.083315202498643
	IJKL energy                =   -0.352540677434122
	IJKA energy                =    0.013319864016604
	IJAB energy                =   -0.227166217375168
	IBJA energy                =    0.330363854068780
	CIAB energy                =    0.000021747455819
	ABCD energy                =    0.032571604263853
	Total two-electron energy  =   -0.203429825004234
	CCSD correlation energy    =   -0.120114622505591
	Total CCSD energy          =  -39.041065771646643

	Energies re-computed from Mulliken density:
	-------------------------------------------
	One-electron energy        =    0.083315202498643
	IJKL energy                =   -0.352540677434122
	IJKA energy                =    0.013319864016604
	IJAB energy                =   -0.220586397893279
	IBJA energy                =    0.323784034586890
	CIAB energy                =    0.000021747455819
	ABCD energy                =    0.032571604263853
	Total two-electron energy  =   -0.203429825004234
	CCSD correlation energy    =   -0.120114622505591
	Total CCSD energy          =  -39.041065771646643

*** tstop() called on lawn-143-215-103-161.lawn.gatech.edu at Fri Apr 27 14:17:40 2012
Module time:
	user time   =       0.11 seconds =       0.00 minutes
	system time =       0.10 seconds =       0.00 minutes
	total time  =          1 seconds =       0.02 minutes
Total time:
	user time   =       2.67 seconds =       0.04 minutes
	system time =       2.04 seconds =       0.03 minutes
	total time  =         11 seconds =       0.18 minutes

*** tstart() called on lawn-143-215-103-161.lawn.gatech.edu
*** at Fri Apr 27 14:17:40 2012

 DERIV: Derivative code.
   by Justin Turney

  Cartesian Displacement SALCs
  By SALC:
  Number of SALCs: 3, nirreps: 1
  Project out translations: False
  Project out rotations: False
	irrep = 0, ncomponent = 1
		0: atom 0, direction z, coef 1.000000
	irrep = 0, ncomponent = 2
		0: atom 1, direction y, coef 0.707107
		1: atom 2, direction y, coef -0.707107
	irrep = 0, ncomponent = 2
		0: atom 1, direction z, coef 0.707107
		1: atom 2, direction z, coef 0.707107

  By Atomic Center:
  Number of atomic centers: 3
   Atomic Center 0:
	x component, size = 0
	y component, size = 0
	z component, size = 1
		0: salc 0, irrep 0, coef 1.000000
   Atomic Center 1:
	x component, size = 0
	y component, size = 1
		0: salc 1, irrep 0, coef 0.707107
	z component, size = 1
		0: salc 2, irrep 0, coef 0.707107
   Atomic Center 2:
	x component, size = 0
	y component, size = 1
		0: salc 1, irrep 0, coef -0.707107
	z component, size = 1
		0: salc 2, irrep 0, coef 0.707107

    Molecular point group: c2v

    Geometry (in Bohr), charge = 0, multiplicity = 3:

       Center              X                  Y                   Z       
    ------------   -----------------  -----------------  -----------------
           C          0.000000000000     0.000000000000    -0.138162206355
           H          0.000000000000    -1.850209883229     0.822536860813
           H          0.000000000000     1.850209883229     0.822536860813

	Presorting MO-basis TPDM.
	Sorting File: MO TPDM (AA|AA) nbuckets = 1
	Starting first half-transformation.
	Sorting half-transformed TPDM.
	First half integral transformation complete.


  -Nuclear Repulsion Energy 1st Derivatives:
     Atom            X                  Y                   Z
    ------   -----------------  -----------------  -----------------
       1        0.000000000000     0.000000000000     1.272334078501
       2        0.000000000000     1.298223250368    -0.636167039250
       3        0.000000000000    -1.298223250368    -0.636167039250


  -One-electron contribution to gradient:
     Atom            X                  Y                   Z
    ------   -----------------  -----------------  -----------------
       1        0.000000000000     0.000000000000    -3.303347590056
       2        0.000000000000    -3.208645079531     1.651673795028
       3        0.000000000000     3.208645079531     1.651673795028


  -Lagrangian contribution to gradient:
     Atom            X                  Y                   Z
    ------   -----------------  -----------------  -----------------
       1        0.000000000000     0.000000000000     0.223222122062
       2        0.000000000000     0.194580000788    -0.111611061031
       3        0.000000000000    -0.194580000788    -0.111611061031


  -Two-electron contribution to gradient:
     Atom            X                  Y                   Z
    ------   -----------------  -----------------  -----------------
       1        0.000000000000     0.000000000000     1.793106419583
       2        0.000000000000     1.714363009284    -0.896553209792
       3        0.000000000000    -1.714363009284    -0.896553209792


  -Total gradient:
     Atom            X                  Y                   Z
    ------   -----------------  -----------------  -----------------
       1        0.000000000000     0.000000000000    -0.014684969910
       2        0.000000000000    -0.001478819091     0.007342484955
       3        0.000000000000     0.001478819091     0.007342484955


*** tstop() called on lawn-143-215-103-161.lawn.gatech.edu at Fri Apr 27 14:17:40 2012
Module time:
	user time   =       0.17 seconds =       0.00 minutes
	system time =       0.03 seconds =       0.00 minutes
	total time  =          0 seconds =       0.00 minutes
Total time:
	user time   =       2.84 seconds =       0.05 minutes
	system time =       2.07 seconds =       0.03 minutes
	total time  =         11 seconds =       0.18 minutes

			----------------------------------
			 OPTKING: for geometry optimizations  
			  - R.A. King,  Bethel University   
			------------------------------------

	Previous internal coordinate definitions found.
	---Fragment 1 Geometry and Gradient---
	 C           0.0000000000        0.0000000000       -0.1381622064
	 H           0.0000000000       -1.8502098832        0.8225368608
	 H           0.0000000000        1.8502098832        0.8225368608
	             0.0000000000        0.0000000000       -0.0146849699
	             0.0000000000       -0.0014788191        0.0073424850
	             0.0000000000        0.0014788191        0.0073424850

	---Fragment 1 Intrafragment Coordinates---
	 - Coordinate -           - BOHR/RAD -       - ANG/DEG -
	 R(1,2)           =         2.084759	       1.103207
	 R(1,3)           =         2.084759	       1.103207
	 B(2,1,3)         =         2.183754	     125.119902

	Current energy   :       -39.0410657716

	Energy change for the previous step:
		Projected    :        -0.0068907299
		Actual       :        -0.0083403798
	Energy ratio indicates good step: Trust radius increased to 8.000e-01.


	Performing BFGS update with previous 1 gradient(s).
	Going to follow RFO solution 1.
	Projected energy change by RFO approximation:        -0.0006783667

	Back-transformation to cartesian coordinates...
	Successfully converged to displaced geometry.

	---Internal Coordinate Step in ANG or DEG, aJ/ANG or AJ/DEG ---
	 ----------------------------------------------------------------------
	 Coordinate             Previous        Force       Change         New 
	 ----------             --------       ------       ------       ------
	 R(1,2)          =      1.103207    -0.038689    -0.009674     1.093533
	 R(1,3)          =      1.103207    -0.038689    -0.009674     1.093533
	 B(2,1,3)        =    125.119902     0.000926     5.581644   130.701546
	 ----------------------------------------------------------------------

  ==> Convergence Check <==

  Measures of convergence in internal coordinates in au.
  Criteria marked as inactive (o), active & met (*), and active & unmet ( ).
  ---------------------------------------------------------------------------------------------
   Step     Total Energy     Delta E     MAX Force     RMS Force      MAX Disp      RMS Disp   
  ---------------------------------------------------------------------------------------------
    Convergence Criteria    1.00e-07 *    1.00e-06 *             o    1.00e-06 *             o
  ---------------------------------------------------------------------------------------------
      2     -39.04106577   -8.34e-03      1.22e-02      8.00e-03 o    9.74e-02      5.82e-02 o  ~
  ---------------------------------------------------------------------------------------------

	Writing optimization data to binary file.
	Structure for next step:
	Cartesian Geometry (au)
	    C     0.0000000000   0.0000000000  -0.0722621199
	    H     0.0000000000  -1.8781762943   0.7895868176
	    H     0.0000000000   1.8781762943   0.7895868176
			--------------------------
			 OPTKING Finished Execution 
			--------------------------

*** tstart() called on lawn-143-215-103-161.lawn.gatech.edu
*** at Fri Apr 27 14:17:40 2012


         ---------------------------------------------------------
                                   SCF
            by Justin Turney, Rob Parrish, and Andy Simmonett
                             ROHF Reference
                        1 Threads,    250 MiB Core
         ---------------------------------------------------------

  ==> Geometry <==

    Molecular point group: c2v

    Geometry (in Angstrom), charge = 0, multiplicity = 3:

       Center              X                  Y                   Z       
    ------------   -----------------  -----------------  -----------------
           C          0.000000000000     0.000000000000    -0.065589477702
           H          0.000000000000    -0.993888088638     0.390481337225
           H          0.000000000000     0.993888088638     0.390481337225

  Running in c2v symmetry.

  Nuclear repulsion =    6.073198473057580

  Charge       = 0
  Multiplicity = 3
  Electrons    = 8
  Nalpha       = 5
  Nbeta        = 3

  ==> Algorithm <==

  SCF Algorithm Type is PK.
  DIIS enabled.
  MOM disabled.
  Fractional occupation disabled.
  Guess Type is CORE.
  Energy threshold   = 1.00e-10
  Density threshold  = 1.00e-08
  Integral threshold = 0.00e+00

  ==> Primary Basis <==

  Basis Set: CC-PVDZ
    Number of shells: 12
    Number of basis function: 24
    Number of Cartesian functions: 25
    Spherical Harmonics?: true
    Max angular momentum: 2

  ==> Pre-Iterations <==

  Minimum eigenvalue in the overlap matrix is 3.2409634979E-02.
  Using Symmetric Orthogonalization.
  SCF Guess: Core (One-Electron) Hamiltonian.

  Initial ROHF energy:   -29.64898446856801

   -------------------------------------------------------
    Irrep   Nso     Nmo     Nalpha   Nbeta   Ndocc  Nsocc
   -------------------------------------------------------
     A1        11      11       3       2       2       1
     A2         2       2       0       0       0       0
     B1         4       4       1       0       0       1
     B2         7       7       1       1       1       0
   -------------------------------------------------------
    Total      24      24       5       3       3       2
   -------------------------------------------------------

  ==> Integral Setup <==

 MINTS: Wrapper to libmints.
   by Justin Turney

   Calculation information:
      Number of atoms:                   3
      Number of AO shells:              12
      Number of SO shells:               9
      Number of primitives:             32
      Number of atomic orbitals:        25
      Number of basis functions:        24

      Number of irreps:                  4
      Number of functions per irrep: [  11    2    4    7 ]

      Overlap, kinetic, potential, dipole, and quadrupole integrals
        stored in file 35.

      Computing two-electron integrals...done
      Computed 11412 non-zero two-electron integrals.
        Stored in file 33.

  ==> Iterations <==

                        Total Energy        Delta E     Density RMS

   @ROHF iter   1:   -35.20258365537754   -5.55360e+00   3.31183e-33 
	Occupation by irrep:
	         A1    A2    B1    B2 
	DOCC [     2,    0,    0,    1 ]
	SOCC [     1,    0,    0,    1 ]

   @ROHF iter   2:   -37.33141149278216   -2.12883e+00   1.22034e+00 DIIS
	Occupation by irrep:
	         A1    A2    B1    B2 
	DOCC [     2,    0,    0,    1 ]
	SOCC [     1,    0,    1,    0 ]

   @ROHF iter   3:   -38.88024838337224   -1.54884e+00   1.15951e+00 DIIS
   @ROHF iter   4:   -38.91481742292199   -3.45690e-02   1.88264e-02 DIIS
   @ROHF iter   5:   -38.92103324094970   -6.21582e-03   7.62586e-03 DIIS
   @ROHF iter   6:   -38.92149684125777   -4.63600e-04   2.79461e-03 DIIS
   @ROHF iter   7:   -38.92154400783021   -4.71666e-05   1.08572e-03 DIIS
   @ROHF iter   8:   -38.92154776998827   -3.76216e-06   3.44663e-04 DIIS
   @ROHF iter   9:   -38.92154779397452   -2.39863e-08   4.18817e-05 DIIS
   @ROHF iter  10:   -38.92154779512140   -1.14688e-09   7.91793e-06 DIIS
   @ROHF iter  11:   -38.92154779517235   -5.09530e-11   1.51133e-06 DIIS
   @ROHF iter  12:   -38.92154779517445   -2.10321e-12   1.76052e-07 DIIS
   @ROHF iter  13:   -38.92154779517445    0.00000e+00   2.73435e-08 DIIS

  ==> Post-Iterations <==

	Orbital Energies (a.u.)
	-----------------------

	Doubly Occupied:                                                      

	   1A1   -11.250168     2A1    -0.845509     1B2    -0.590059  

	Singly Occupied:                                                      

	   3A1    -0.150348     1B1    -0.103806  

	Virtual:                                                              

	   4A1     0.208199     2B2     0.265593     5A1     0.622352  
	   3B2     0.678968     2B1     0.719050     6A1     0.733274  
	   4B2     0.907466     7A1     1.018317     1A2     1.194251  
	   8A1     1.338979     3B1     1.360660     5B2     1.570098  
	   9A1     1.749501     4B1     1.898123     6B2     2.081348  
	   2A2     2.177752    10A1     2.246608     7B2     2.741792  
	  11A1     2.871389  

	Final Occupation by Irrep:
	         A1    A2    B1    B2 
	DOCC [     2,    0,    0,    1 ]
	SOCC [     1,    0,    1,    0 ]

  Energy converged.

  @ROHF Final Energy:   -38.92154779517445

   => Energetics <=

    Nuclear Repulsion Energy =          6.0731984730575803
    One-Electron Energy =             -63.7453089527353356
    Two-Electron Energy =              18.7505626845033042
    DFT Functional Energy =             0.0000000000000000
    Empirical Dispersion Energy =       0.0000000000000000
    Total Energy =                    -38.9215477951744475

  ==> Properties <==

  Nuclear Dipole Moment: (a.u.)
     X:     0.0000      Y:     0.0000      Z:     0.7321

  Electronic Dipole Moment: (a.u.)
     X:     0.0000      Y:     0.0000      Z:    -0.5124

  Dipole Moment: (a.u.)
     X:     0.0000      Y:     0.0000      Z:     0.2198     Total:     0.2198

  Dipole Moment: (Debye)
     X:     0.0000      Y:     0.0000      Z:     0.5586     Total:     0.5586


  Saving occupied orbitals to File 180.

*** tstop() called on lawn-143-215-103-161.lawn.gatech.edu at Fri Apr 27 14:17:40 2012
Module time:
	user time   =       0.08 seconds =       0.00 minutes
	system time =       0.01 seconds =       0.00 minutes
	total time  =          0 seconds =       0.00 minutes
Total time:
	user time   =       2.93 seconds =       0.05 minutes
	system time =       2.08 seconds =       0.03 minutes
	total time  =         11 seconds =       0.18 minutes

*** tstart() called on lawn-143-215-103-161.lawn.gatech.edu
*** at Fri Apr 27 14:17:40 2012


	**************************************************
	* TRANSQT2: Program to transform integrals from  *
	*           the SO basis to the MO basis.        *
	*                                                *
	*            Daniel, David, & Justin             *
	**************************************************


	Input parameters:
	-----------------
	Wave function   =	CCSD
	Backtransform   =	No
	Print Level     =	1
	Print TEIs      =	No
	Reference wfn   =	ROHF
	Derivative      =	First
	Delete TEI File =	Yes
	Memory (Mbytes) =	250.0
	Cache Level     =	2
	Cache Type      =	LRU
	Chkpt Parameters:
	--------------------
	Number of irreps     = 4
	Number of SOs        = 24
	Number of MOs        = 24
	Number of active MOs = 24

	Label	# SOs	# FZDC	# DOCC	# SOCC	# VIRT	# FZVR
	-----	-----	------	------	------	------	------
	 A1	   11	    0	    2	    1	    8	    0
	 A2	   2	    0	    0	    0	    2	    0
	 B1	   4	    0	    0	    1	    3	    0
	 B2	   7	    0	    1	    0	    6	    0

	Nuclear Rep. energy (chkpt) =      6.07319847305758
	SCF energy          (chkpt) =    -38.92154779517445

	Presorting SO-basis two-electron integrals.
	Sorting File: SO Ints (pq,rs) nbuckets = 1
	Frozen-core energy =    0.000000000000000
	Starting first half-transformation.
	Sorting half-transformed integrals.
	Starting second half-transformation.
	Two-electron integral transformation complete.

*** tstop() called on lawn-143-215-103-161.lawn.gatech.edu at Fri Apr 27 14:17:40 2012
Module time:
	user time   =       0.01 seconds =       0.00 minutes
	system time =       0.01 seconds =       0.00 minutes
	total time  =          0 seconds =       0.00 minutes
Total time:
	user time   =       2.94 seconds =       0.05 minutes
	system time =       2.09 seconds =       0.03 minutes
	total time  =         11 seconds =       0.18 minutes

*** tstart() called on lawn-143-215-103-161.lawn.gatech.edu
*** at Fri Apr 27 14:17:40 2012


			**************************
			*                        *
			*         CCSORT         *
			*                        *
			**************************


	Input parameters:
	-----------------
	Wave function   =	CCSD
	Reference wfn   =	ROHF
	Derivative      =	First
	Memory (Mbytes) =	250.0
	AO Basis        =	NONE
	Make (ab|cd)    =	True
	Make unpacked (ab|cd) =	True
	Cache Level     =	2
	Cache Type      =	LRU
	Local CC        =     No


	Chkpt Parameters:
	--------------------
	Number of irreps     = 4
	Number of MOs        = 24
	Number of active MOs = 24

	Label	# MOs	# FZDC	# DOCC	# SOCC	# VIRT	# FZVR
	-----	-----	------	------	------	------	------
	 A1	   11	    0	    2	    1	    8	    0
	 A2	   2	    0	    0	    0	    2	    0
	 B1	   4	    0	    0	    1	    3	    0
	 B2	   7	    0	    1	    0	    6	    0

	Nuclear Rep. energy (chkpt) =      6.07319847305758
	SCF energy          (chkpt) =    -38.92154779517445

	Size of irrep 0 of <ab|cd> integrals:      0.019 (MW) /      0.150 (MB)
	Size of irrep 1 of <ab|cd> integrals:      0.007 (MW) /      0.056 (MB)
	Size of irrep 2 of <ab|cd> integrals:      0.009 (MW) /      0.074 (MB)
	Size of irrep 3 of <ab|cd> integrals:      0.015 (MW) /      0.123 (MB)
	Total:                                     0.050 (MW) /      0.403 (MB)

	Size of irrep 0 of <ia|bc> integrals:      0.005 (MW) /      0.041 (MB)
	Size of irrep 1 of <ia|bc> integrals:      0.001 (MW) /      0.011 (MB)
	Size of irrep 2 of <ia|bc> integrals:      0.002 (MW) /      0.018 (MB)
	Size of irrep 3 of <ia|bc> integrals:      0.004 (MW) /      0.029 (MB)
	Total:                                     0.012 (MW) /      0.098 (MB)

	Size of irrep 0 of tIjAb amplitudes:       0.002 (MW) /      0.012 (MB)
	Size of irrep 1 of tIjAb amplitudes:       0.000 (MW) /      0.001 (MB)
	Size of irrep 2 of tIjAb amplitudes:       0.001 (MW) /      0.005 (MB)
	Size of irrep 3 of tIjAb amplitudes:       0.001 (MW) /      0.006 (MB)
	Total:                                     0.003 (MW) /      0.024 (MB)

[...]
	          1   1        -0.0260450785
	          1   0        -0.0256310280
	          1   8        -0.0186157339
	          4  15        -0.0173298434
	          4  17        -0.0096368634
	          4  18         0.0081069247
	          4  16         0.0069043438
	          1   5         0.0062582128
	          1   3         0.0043852372
	          1   2        -0.0023061672

	Largest TIJAB Amplitudes:
	  3   2  11   2        -0.0355464245
	  3   2  12   4        -0.0234393084
	  4   3   9   1         0.0234067536
	  4   3  17  11        -0.0205295255
	  4   3  15  11        -0.0202230636
	  4   2  17   1         0.0163482365
	  3   1  11   0        -0.0158300796
	  4   2  15   1         0.0154669646
	  3   1  11   3         0.0152706294
	  4   2  16   2        -0.0142845961

	Largest Tijab Amplitudes:
	  4   1  14   9        -0.0109323698
	  4   1  16   8        -0.0078999118
	  4   1  15   0        -0.0075183240
	  4   1  17   8         0.0062490179
	  4   1  15   3         0.0061540242
	  4   1  16   0        -0.0060550257
	  4   1  17   3         0.0059665827
	  4   1  15   8         0.0051258993
	  4   1  18   8         0.0042588876
	  4   1  17   0        -0.0041811183

	Largest TIjAb Amplitudes:
	  4   4   1   1        -0.0356495477
	  4   4  17  17        -0.0346829397
	  3   1   1  14        -0.0322713064
	  3   1   0  14        -0.0313844708
	  3   1  12   8         0.0280661848
	  2   1   4   8         0.0277846779
	  2   1  12  14         0.0266385199
	  4   4  15  15        -0.0265170565
	  4   1   9  14         0.0261334338
	  3   1  11   0        -0.0261271607

	SCF energy       (chkpt)              =  -38.921394732573340
	Reference energy (file100)            =  -38.921394732573319

	Opposite-spin CCSD correlation energy =    0.000000000000000
	Same-spin CCSD correlation energy     =    0.000000000000000
	CCSD correlation energy               =   -0.120484100541107
      * CCSD total energy                     =  -39.041878833114424


*** tstop() called on lawn-143-215-103-161.lawn.gatech.edu at Fri Apr 27 14:18:04 2012
Module time:
	user time   =       0.68 seconds =       0.01 minutes
	system time =       0.61 seconds =       0.01 minutes
	total time  =          4 seconds =       0.07 minutes
Total time:
	user time   =       7.93 seconds =       0.13 minutes
	system time =       5.78 seconds =       0.10 minutes
	total time  =         35 seconds =       0.58 minutes

*** tstart() called on lawn-143-215-103-161.lawn.gatech.edu
*** at Fri Apr 27 14:18:04 2012


			**************************
			*                        *
			*         CCHBAR         *
			*                        *
			**************************


*** tstop() called on lawn-143-215-103-161.lawn.gatech.edu at Fri Apr 27 14:18:05 2012
Module time:
	user time   =       0.07 seconds =       0.00 minutes
	system time =       0.07 seconds =       0.00 minutes
	total time  =          1 seconds =       0.02 minutes
Total time:
	user time   =       8.00 seconds =       0.13 minutes
	system time =       5.85 seconds =       0.10 minutes
	total time  =         36 seconds =       0.60 minutes

*** tstart() called on lawn-143-215-103-161.lawn.gatech.edu
*** at Fri Apr 27 14:18:05 2012


			**************************
			*        CCLAMBDA        *
			**************************


	Nuclear Rep. energy (chkpt)   =    6.069997495843558
	Reference           (chkpt)   = 1
	SCF energy          (chkpt)   =  -38.921394732573340
	Reference energy    (CC_INFO) =  -38.921394732573319
	CCSD energy         (CC_INFO) =   -0.120484100541107
	Total CCSD energy   (CC_INFO) =  -39.041878833114424

	Input parameters:
	-----------------
	Maxiter       =      50
	Convergence   = 1.0e-10
	Restart       =     No
	Cache Level   =     2
	Model III     =     No
	DIIS          =     Yes
	AO Basis      =     No
	ABCD            =     NEW
	Local CC        =     No
	Paramaters for left-handed eigenvectors:
	    Irr   Root  Ground-State?    EOM energy        R0
	  1   0     0        Yes       0.0000000000   1.0000000000
	Labels for eigenvector 1:
	LIA 0 -1, Lia 0 -1, LIJAB 0 -1, Lijab 0 -1, LIjAb 0 -1, 2LIjAb - LIjbA 0 -1
	Symmetry of left-hand state: B1
	Symmetry of left-hand eigenvector: A1

	          Solving Lambda Equations
	          ------------------------
	Iter     PseudoEnergy or Norm         RMS  
	----     ---------------------     --------
	   0        -0.116589581860567    3.833e-11
	   1        -0.114173349115368    5.850e-03
	   2        -0.113631777129698    1.666e-03
	   3        -0.113569098993745    5.926e-04
	   4        -0.113572761852251    1.730e-04
	   5        -0.113571164542838    5.822e-05
	   6        -0.113570002604359    1.862e-05
	   7        -0.113569747459773    6.295e-06
	   8        -0.113569722385156    1.970e-06
	   9        -0.113569722402250    6.010e-07
	  10        -0.113569724553915    1.693e-07
	  11        -0.113569725519852    4.661e-08
	  12        -0.113569725335960    1.270e-08
	  13        -0.113569725206922    3.995e-09
	  14        -0.113569725186188    1.176e-09
	  15        -0.113569725178973    3.665e-10
	  16        -0.113569725171823    1.217e-10
	  17        -0.113569725170764    3.834e-11

	Largest LIA Amplitudes:
	          1   1         0.0262596525
	          1   0         0.0235822962
	          4  15         0.0161264754
	          2   0         0.0147615007
	          4  17         0.0140068237
	          2   1         0.0126353753
	          1   5        -0.0116243312
	          1   3        -0.0094704100
	          4  19         0.0070771180
	          1   6        -0.0061005677

	Largest Lia Amplitudes:
	          1   1        -0.0276753243
	          1   0        -0.0267263573
	          4  15        -0.0181128507
	          1   8        -0.0176363994
	          4  17        -0.0121914925
	          4  18         0.0083701704
	          4  16         0.0077449870
	          1   5         0.0061711166
	          1   3         0.0056216855
	          1   2        -0.0034702959

	Largest LIJAB Amplitudes:
	  3   2  11   2        -0.0350051020
	  3   2  12   4        -0.0229601614
	  4   3   9   1         0.0227313207
	  4   3  17  11        -0.0200846309
	  4   3  15  11        -0.0196062313
	  4   2  17   1         0.0161075485
	  3   1  11   0        -0.0153407228
	  4   2  15   1         0.0152510175
	  3   1  11   3         0.0151660867
	  4   2  17   2        -0.0139787181

	Largest Lijab Amplitudes:
	  4   1  14   9        -0.0104034760
	  4   1  16   8        -0.0075312240
	  4   1  15   0        -0.0069015350
	  4   1  17   8         0.0061138713
	  4   1  16   0        -0.0059557937
	  4   1  15   3         0.0058080286
	  4   1  17   3         0.0056136833
	  4   1  15   8         0.0050966649
	  4   1  18   8         0.0040042167
	  4   1  17   0        -0.0037345652

	Largest LIjAb Amplitudes:
	  4   4   1   1        -0.0344317879
	  4   4  17  17        -0.0339737372
	  3   1   1  14        -0.0308347852
	  3   1   0  14        -0.0299116141
	  3   1  12   8         0.0272125126
	  2   1   4   8         0.0268821608
	  4   4  15  15        -0.0260761203
	  2   1  12  14         0.0257219035
	  3   1  11   0        -0.0256804994
	  4   1   9  14         0.0252201570

	Iterations converged.

	Overlap <L|e^T> =        0.94609979672

*** tstop() called on lawn-143-215-103-161.lawn.gatech.edu at Fri Apr 27 14:18:05 2012
Module time:
	user time   =       0.27 seconds =       0.00 minutes
	system time =       0.16 seconds =       0.00 minutes
	total time  =          0 seconds =       0.00 minutes
Total time:
	user time   =       8.27 seconds =       0.14 minutes
	system time =       6.01 seconds =       0.10 minutes
	total time  =         36 seconds =       0.60 minutes

*** tstart() called on lawn-143-215-103-161.lawn.gatech.edu
*** at Fri Apr 27 14:18:05 2012


			**************************
			*                        *
			*        CCDENSITY       *
			*                        *
			**************************


	Input parameters:
	-----------------
	Wave function    =   CCSD
	Reference wfn    =  ROHF
	Dertype          = 1
	Tolerance        = 1.0e-14
	Cache Level      = 2
	AO Basis         = No
	OPDM Only        = No
	Relax OPDM       = Yes
	Compute Xi       = No
	Use Zeta         = No
	Xi connected     = Yes

	Nuclear Rep. energy (chkpt)   =    6.069997495843558
	SCF energy          (chkpt)   =  -38.921394732573340
	Reference energy    (file100) =  -38.921394732573319
	CCSD energy         (CC_INFO) =   -0.120484100541107
	Total CCSD energy   (CC_INFO) =  -39.041878833114424
	Number of States = 1

	Ground?  State     EOM Energy       R0
	  Yes     0 A1    0.0000000000   1.00000000

	Energies re-computed from CC density:
	-------------------------------------
	One-electron energy        =    0.138392420029157
	IJKL energy                =    0.027872364158754
	IJKA energy                =    0.000000945016633
	IJAB energy                =   -0.227206438378399
	IBJA energy                =   -0.092071190391364
	CIAB energy                =    0.000161027225791
	ABCD energy                =    0.032366771799461
	Total two-electron energy  =   -0.258876520569123
	CCSD correlation energy    =   -0.120484100539966
	Total CCSD energy          =  -39.041878833113287

	Virial Theorem Data:
	--------------------
	Kinetic energy (ref)   =   38.846234497835297
	Kinetic energy (corr)  =    0.104185605464451
	Kinetic energy (total) =   38.950420103299749
	-V/T (ref)             =    2.001934813906924
	-V/T (corr)            =    2.156437110520191
	-V/T (total)           =    2.002348080702907

	Energies re-computed from Fock-adjusted CC density:
	---------------------------------------------------
	One-electron energy        =    0.084380351881204
	IJKL energy                =   -0.353624167432510
	IJKA energy                =    0.013007653486894
	IJAB energy                =   -0.227206438378399
	IBJA energy                =    0.330430700877915
	CIAB energy                =    0.000161027225791
	ABCD energy                =    0.032366771799461
	Total two-electron energy  =   -0.204864452420848
	CCSD correlation energy    =   -0.120484100539644
	Total CCSD energy          =  -39.041878833112960

	Energies re-computed from Mulliken density:
	-------------------------------------------
	One-electron energy        =    0.084380351881204
	IJKL energy                =   -0.353624167432510
	IJKA energy                =    0.013007653486894
	IJAB energy                =   -0.220750759175454
	IBJA energy                =    0.323975021674970
	CIAB energy                =    0.000161027225791
	ABCD energy                =    0.032366771799461
	Total two-electron energy  =   -0.204864452420848
	CCSD correlation energy    =   -0.120484100539644
	Total CCSD energy          =  -39.041878833112960

*** tstop() called on lawn-143-215-103-161.lawn.gatech.edu at Fri Apr 27 14:18:06 2012
Module time:
	user time   =       0.10 seconds =       0.00 minutes
	system time =       0.10 seconds =       0.00 minutes
	total time  =          1 seconds =       0.02 minutes
Total time:
	user time   =       8.37 seconds =       0.14 minutes
	system time =       6.11 seconds =       0.10 minutes
	total time  =         37 seconds =       0.62 minutes

*** tstart() called on lawn-143-215-103-161.lawn.gatech.edu
*** at Fri Apr 27 14:18:06 2012

 DERIV: Derivative code.
   by Justin Turney

  Cartesian Displacement SALCs
  By SALC:
  Number of SALCs: 3, nirreps: 1
  Project out translations: False
  Project out rotations: False
	irrep = 0, ncomponent = 1
		0: atom 0, direction z, coef 1.000000
	irrep = 0, ncomponent = 2
		0: atom 1, direction y, coef 0.707107
		1: atom 2, direction y, coef -0.707107
	irrep = 0, ncomponent = 2
		0: atom 1, direction z, coef 0.707107
		1: atom 2, direction z, coef 0.707107

  By Atomic Center:
  Number of atomic centers: 3
   Atomic Center 0:
	x component, size = 0
	y component, size = 0
	z component, size = 1
		0: salc 0, irrep 0, coef 1.000000
   Atomic Center 1:
	x component, size = 0
	y component, size = 1
		0: salc 1, irrep 0, coef 0.707107
	z component, size = 1
		0: salc 2, irrep 0, coef 0.707107
   Atomic Center 2:
	x component, size = 0
	y component, size = 1
		0: salc 1, irrep 0, coef -0.707107
	z component, size = 1
		0: salc 2, irrep 0, coef 0.707107

    Molecular point group: c2v

    Geometry (in Bohr), charge = 0, multiplicity = 3:

       Center              X                  Y                   Z       
    ------------   -----------------  -----------------  -----------------
           C          0.000000000000     0.000000000000    -0.120418979970
           H          0.000000000000    -1.889844248299     0.716904082386
           H          0.000000000000     1.889844248299     0.716904082386

	Presorting MO-basis TPDM.
	Sorting File: MO TPDM (AA|AA) nbuckets = 1
	Starting first half-transformation.
	Sorting half-transformed TPDM.
	First half integral transformation complete.


  -Nuclear Repulsion Energy 1st Derivatives:
     Atom            X                  Y                   Z
    ------   -----------------  -----------------  -----------------
       1        0.000000000000     0.000000000000     1.137712981731
       2        0.000000000000     1.353911620628    -0.568856490865
       3        0.000000000000    -1.353911620628    -0.568856490865


  -One-electron contribution to gradient:
     Atom            X                  Y                   Z
    ------   -----------------  -----------------  -----------------
       1        0.000000000000     0.000000000000    -2.843387000294
       2        0.000000000000    -3.365631169139     1.421693500147
       3        0.000000000000     3.365631169139     1.421693500147


  -Lagrangian contribution to gradient:
     Atom            X                  Y                   Z
    ------   -----------------  -----------------  -----------------
       1        0.000000000000     0.000000000000     0.187730507120
       2        0.000000000000     0.204526860870    -0.093865253560
       3        0.000000000000    -0.204526860870    -0.093865253560


  -Two-electron contribution to gradient:
     Atom            X                  Y                   Z
    ------   -----------------  -----------------  -----------------
       1        0.000000000000     0.000000000000     1.517943473550
       2        0.000000000000     1.807192655348    -0.758971736775
       3        0.000000000000    -1.807192655348    -0.758971736775


  -Total gradient:
     Atom            X                  Y                   Z
    ------   -----------------  -----------------  -----------------
       1        0.000000000000     0.000000000000    -0.000000037894
       2        0.000000000000    -0.000000032293     0.000000018947
       3        0.000000000000     0.000000032293     0.000000018947


*** tstop() called on lawn-143-215-103-161.lawn.gatech.edu at Fri Apr 27 14:18:06 2012
Module time:
	user time   =       0.18 seconds =       0.00 minutes
	system time =       0.01 seconds =       0.00 minutes
	total time  =          0 seconds =       0.00 minutes
Total time:
	user time   =       8.55 seconds =       0.14 minutes
	system time =       6.12 seconds =       0.10 minutes
	total time  =         37 seconds =       0.62 minutes

			----------------------------------
			 OPTKING: for geometry optimizations  
			  - R.A. King,  Bethel University   
			------------------------------------

	Previous internal coordinate definitions found.
	---Fragment 1 Geometry and Gradient---
	 C           0.0000000000        0.0000000000       -0.1204189800
	 H           0.0000000000       -1.8898442483        0.7169040824
	 H           0.0000000000        1.8898442483        0.7169040824
	             0.0000000000        0.0000000000       -0.0000000379
	             0.0000000000       -0.0000000323        0.0000000189
	             0.0000000000        0.0000000323        0.0000000189

	---Fragment 1 Intrafragment Coordinates---
	 - Coordinate -           - BOHR/RAD -       - ANG/DEG -
	 R(1,2)           =         2.067032	       1.093826
	 R(1,3)           =         2.067032	       1.093826
	 B(2,1,3)         =         2.307450	     132.207128

	Current energy   :       -39.0418788331

	Energy change for the previous step:
		Projected    :        -0.0000000001
		Actual       :        -0.0000000001

	Performing BFGS update with previous 1 gradient(s).
	Denominators (dg)(dq) or (dq)(dq) are very small.
	 Skipping Hessian update for step 5.
	Going to follow RFO solution 1.
	Projected energy change by RFO approximation:        -0.0000000000

	Back-transformation to cartesian coordinates...
	Successfully converged to displaced geometry.

	---Internal Coordinate Step in ANG or DEG, aJ/ANG or AJ/DEG ---
	 ----------------------------------------------------------------------
	 Coordinate             Previous        Force       Change         New 
	 ----------             --------       ------       ------       ------
	 R(1,2)          =      1.093826    -0.000000    -0.000000     1.093826
	 R(1,3)          =      1.093826    -0.000000    -0.000000     1.093826
	 B(2,1,3)        =    132.207128     0.000000     0.000007   132.207135
	 ----------------------------------------------------------------------

  ==> Convergence Check <==

  Measures of convergence in internal coordinates in au.
  Criteria marked as inactive (o), active & met (*), and active & unmet ( ).
  ---------------------------------------------------------------------------------------------
   Step     Total Energy     Delta E     MAX Force     RMS Force      MAX Disp      RMS Disp   
  ---------------------------------------------------------------------------------------------
    Convergence Criteria    1.00e-07 *    1.00e-06 *             o    1.00e-06 *             o
  ---------------------------------------------------------------------------------------------
      6     -39.04187883   -1.48e-10 *    3.72e-08 *    3.08e-08 o    1.25e-07 *    1.13e-07 o  ~
  ---------------------------------------------------------------------------------------------


  **** Optimization is complete! ****

  ==> Optimization Summary <==

  Measures of convergence in internal coordinates in au.
  --------------------------------------------------------------------------------------------------------------- ~
   Step         Total Energy             Delta E       MAX Force       RMS Force        MAX Disp        RMS Disp  ~
  --------------------------------------------------------------------------------------------------------------- ~
      1     -39.032725391839    -39.032725391839      0.04889261      0.02828142      0.28134536      0.16251017  ~
      2     -39.041065771649     -0.008340379810      0.01216444      0.00800164      0.09741807      0.05819131  ~
      3     -39.041845866349     -0.000780094700      0.00250474      0.00151710      0.02381836      0.01376151  ~
      4     -39.041878555841     -0.000032689491      0.00022573      0.00013032      0.00240356      0.00138962  ~
      5     -39.041878832967     -0.000000277126      0.00000520      0.00000327      0.00005544      0.00003206  ~
      6     -39.041878833114     -0.000000000148      0.00000004      0.00000003      0.00000012      0.00000011  ~
  --------------------------------------------------------------------------------------------------------------- ~

	Writing optimization data to binary file.
	Final energy is    -39.0418788331144
	Final (previous) structure:
	Cartesian Geometry (au)
	    C     0.0000000000   0.0000000000  -0.1204189800
	    H     0.0000000000  -1.8898442483   0.7169040824
	    H     0.0000000000   1.8898442483   0.7169040824
	Saving final (previous) structure.
			--------------------------
			 OPTKING Finished Execution 
			--------------------------

	Final optimized geometry and variables (in Angstrom):

	C
	H     1    1.093826
	H     1    1.093826     2  132.207128


*** PSI4 exiting successfully. Buy a developer a beer!
