    -----------------------------------------------------------------------
          PSI4: An Open-Source Ab Initio Electronic Structure Package
                              PSI 4.0.0-beta1 Driver

               Git: Rev 8268e5ba0276eef671d5bc4a44cf66fa46407463

    J. M. Turney, A. C. Simmonett, R. M. Parrish, E. G. Hohenstein,
    F. A. Evangelista, J. T. Fermann, B. J. Mintz, L. A. Burns, J. J. Wilke,
    M. L. Abrams, N. J. Russ, M. L. Leininger, C. L. Janssen, E. T. Seidl,
    W. D. Allen, H. F. Schaefer, R. A. King, E. F. Valeev, C. D. Sherrill,
    and T. D. Crawford, WIREs Comput. Mol. Sci., (2011) (doi: 10.1002/wcms.93)

                         Additional Contributions by
    A. E. DePrince, M. Saitow, U. Bozkaya, A. Yu. Sokolov
    -----------------------------------------------------------------------


    Using LocalCommunicator (Number of processes = 1)

    Memory level set to 256.000 MB

  ==> Input File <==

--------------------------------------------------------------------------
#! Mk-MRCCSD(T) single point. $^1A@@1$ O$@@3$ state described using
#! the Ms = 0 component of the singlet.  Uses TCSCF orbitals.

memory 250 mb

refnuc      =   68.712796104070 #TEST
refscf      = -224.311492308024 #TEST
refmkccsd_t = -224.660140784419 #TEST

molecule ch2 {
  0 1
    O        -2.044380893268     0.426793459237     0.000000000000
    O        -0.001248077996    -0.852806209845     0.000000000000
    O         2.045628971264     0.426012750608     0.000000000000

  units au
}

set {
  basis DZ
  e_convergence 15
  d_convergence 13
  r_convergence 10
}

set mcscf {
  reference       twocon
  # The socc and docc needn't be specified; in this case the code will converge correctly without
  docc            [10,1]      # Doubly occupied MOs
  socc            [ 0,2]      # Singly occupied MOs
  maxiter         300
  canonicalize_active_favg true
}

set psimrcc {
  corr_wfn        ccsd_t       # Do Mk-MRCCSD(T) 
  frozen_docc     [3,0]        # Frozen MOs
  restricted_docc [7,1]        # Doubly occupied MOs
  active          [0,2]        # Active MOs
  frozen_uocc     [0,0]        # Frozen virtual MOs
  corr_multp      1            # Select the Ms = 0 component
  wfn_sym         A'           # Select the A1 state
}

energy('psimrcc')
compare_values(refnuc, ch2.nuclear_repulsion_energy()     , 9, "Nuclear repulsion energy") #TEST 
compare_values(refscf, get_variable("SCF TOTAL ENERGY")  , 9, "SCF energy")               #TEST 
compare_values(refmkccsd_t, get_variable("CURRENT ENERGY") , 8, "MkCCSD energy")            #TEST 
--------------------------------------------------------------------------

  Memory set to 250.000 MiB by Python script.

         ------------------------------------------
           MCSCF: a self-consistent field program
            written by Francesco A. Evangelista
         ------------------------------------------    Molecular point group: cs

    Geometry (in Bohr), charge = 0, multiplicity = 1:

       Center              X                  Y                   Z       
    ------------   -----------------  -----------------  -----------------
           O         -2.044380893268     0.426793459237     0.000000000000
           O         -0.001248077996    -0.852806209845     0.000000000000
           O          2.045628971264     0.426012750608     0.000000000000

  -AO BASIS SET INFORMATION:
    Name                   = DZ
    Total number of shells = 18
    Number of primitives   = 42
    Number of AO           = 30
    Number of SO           = 30
    Maximum AM             = 1
    Spherical Harmonics    = TRUE

  -Contraction Scheme:
    Atom   Type   All Primitives // Shells:
   ------ ------ --------------------------
       1     O     9s 5p // 4s 2p 
       2     O     9s 5p // 4s 2p 
       3     O     9s 5p // 4s 2p 

  -Basis set on unique center 1: O
     S (       7816.54000000           1.20331835)
       (       1175.82000000           2.20902231)
       (        273.18800000           3.53298330)
       (         81.16960000           4.77217013)
       (         27.18360000           5.19125205)
       (          3.41360000           0.43172329)
     S (          9.53220000           3.86638370)
     S (          0.93980000           0.68027839)
     S (          0.28460000           0.27770664)
     P (         35.18320000           2.39150646)
       (          7.90400000           2.34601884)
       (          2.30510000           1.59808085)
       (          0.71710000           0.59012167)
     P (          0.21370000           0.20710746)

  -Basis set on unique center 2: O
     S (       7816.54000000           1.20331835)
       (       1175.82000000           2.20902231)
       (        273.18800000           3.53298330)
       (         81.16960000           4.77217013)
       (         27.18360000           5.19125205)
       (          3.41360000           0.43172329)
     S (          9.53220000           3.86638370)
     S (          0.93980000           0.68027839)
     S (          0.28460000           0.27770664)
     P (         35.18320000           2.39150646)
       (          7.90400000           2.34601884)
       (          2.30510000           1.59808085)
       (          0.71710000           0.59012167)
     P (          0.21370000           0.20710746)

  -Basis set on unique center 3: O
     S (       7816.54000000           1.20331835)
       (       1175.82000000           2.20902231)
       (        273.18800000           3.53298330)
       (         81.16960000           4.77217013)
       (         27.18360000           5.19125205)
       (          3.41360000           0.43172329)
     S (          9.53220000           3.86638370)
     S (          0.93980000           0.68027839)
     S (          0.28460000           0.27770664)
     P (         35.18320000           2.39150646)
       (          7.90400000           2.34601884)
       (          2.30510000           1.59808085)
       (          0.71710000           0.59012167)
     P (          0.21370000           0.20710746)

 MINTS: Wrapper to libmints.
   by Justin Turney

   Calculation information:
      Number of atoms:                   3
      Number of AO shells:              18
      Number of SO shells:              18
      Number of primitives:             42
      Number of atomic orbitals:        30
      Number of basis functions:        30

      Number of irreps:                  2
      Number of functions per irrep: [  24    6 ]

      Overlap, kinetic, potential, dipole, and quadrupole integrals
        stored in file 35.

      Computing two-electron integrals...done
      Computed 58884 non-zero two-electron integrals.
        Stored in file 33.



  MOs per irrep:                                                A'  A" Total
  ----------------------------------------------------------------------------
  Total                                                         24    6    30
  Doubly Occupied                                               10    1    11
  Active/Singly Occupied                                         0    2     2
  ----------------------------------------------------------------------------

  Running an SCF calculation
  TWOCON MOs = [25 (A"),26 (A")]

  Generated 465 pairs
  Distributed as [321 A'][144 A"]
  batch   0 pq = [       0,     321] index = [               0,           51681]

  Allocated the PK matrix (51681 elements) 
  Allocated the  K matrix (51681 elements) 
  Reading the two-electron integrals to form PK and K ... 
  batch   0 ... done.


  =========================================================================================
         Cycle          Energy               D(Energy)            D(Density)            DIIS
  =========================================================================================== S
  @SCF    0     -213.381640207834    -213.381640207834       0.114302577062
    ci      = [ 0.00000000, 0.00000000]
    ci_grad = [ 0.00000000, 0.00000000] S
  @SCF    1     -218.616568104275      -5.234927896441       0.159357231916
    ci      = [ 0.00000000, 0.00000000]
    ci_grad = [ 0.00000000, 0.00000000] S
  @SCF    2     -220.186117639585      -1.569549535310       0.142913793337
    ci      = [ 0.00000000, 0.00000000]
    ci_grad = [ 0.00000000, 0.00000000] S
  @SCF    3     -220.791499775055      -0.605382135470       0.090146767541
    ci      = [ 0.00000000, 0.00000000]
    ci_grad = [ 0.00000000, 0.00000000] S
  @SCF    4     -222.313115479123      -1.521615704068       0.087299229501
    ci      = [ 0.00000000, 0.00000000]
    ci_grad = [ 0.00000000, 0.00000000] S
  @SCF    5     -222.126846535946       0.186268943176       0.077908456004
    ci      = [ 0.00000000, 0.00000000]
    ci_grad = [ 0.00000000, 0.00000000] S
  @SCF    6     -223.028469634810      -0.901623098864       0.083281373495
    ci      = [ 0.00000000, 0.00000000]
    ci_grad = [ 0.00000000, 0.00000000] S/E
  @SCF    7     -223.343621804199      -0.315152169388       0.078732500150
    ci      = [ 0.00000000, 0.00000000]
    ci_grad = [ 0.00000000, 0.00000000] S/E
  @SCF    8     -224.096333705879      -0.752711901680       0.027869032465
    ci      = [ 0.00000000, 0.00000000]
    ci_grad = [ 0.00000000, 0.00000000] S/E
  @SCF    9     -224.126934531274      -0.030600825395       0.006451753530
    ci      = [ 0.00000000, 0.00000000]
    ci_grad = [ 0.00000000, 0.00000000] S/E
  @SCF   10     -224.135900728706      -0.008966197432       0.002168218309
    ci      = [ 0.00000000, 0.00000000]
    ci_grad = [ 0.00000000, 0.00000000] S/E
  @SCF   11     -224.138822931599      -0.002922202893       0.001056779018
    ci      = [ 0.00000000, 0.00000000]
    ci_grad = [ 0.00000000, 0.00000000] S/E
  @SCF   12     -224.140787343469      -0.001964411870       0.000700776412
    ci      = [ 0.00000000, 0.00000000]
    ci_grad = [ 0.00000000, 0.00000000] S/E
  @SCF   13     -224.140874334234      -0.000086990764       0.000136849322
    ci      = [ 0.00000000, 0.00000000]
    ci_grad = [ 0.00000000, 0.00000000] S/E
  @SCF   14     -224.140724964748       0.000149369486       0.000063212337
    ci      = [ 0.00000000, 0.00000000]
    ci_grad = [ 0.00000000, 0.00000000] S/E
  @SCF   15     -224.140696038703       0.000028926044       0.000049649057
    ci      = [ 0.00000000, 0.00000000]
    ci_grad = [ 0.00000000, 0.00000000] S/E
  @SCF   16     -224.140679787677       0.000016251026       0.000007323714
    ci      = [ 0.00000000, 0.00000000]
    ci_grad = [ 0.00000000, 0.00000000] S/E
  @SCF   17     -224.140683809838      -0.000004022161       0.000001630971
    ci      = [-0.90538910, 0.42458283]
    ci_grad = [ 0.00000000, 0.00000000] S/E
  @SCF   18     -224.140684217620      -0.000000407782       0.000000395609
    ci      = [-0.90539011, 0.42458068]
    ci_grad = [ 0.00000086, 0.00000087] S/E
  @SCF   19     -224.140680593366       0.000003624254       0.000000273861
    ci      = [-0.90539005, 0.42458080]
    ci_grad = [-0.00000331, 0.00000148] S/E
  @SCF   20     -224.140681730271      -0.000001136905       0.000000237105
    ci      = [-0.90539041, 0.42458003]
    ci_grad = [ 0.00000120,-0.00000011] S/E
  @SCF   21     -224.140681699501       0.000000030770       0.000000230774
    ci      = [-0.90539062, 0.42457959]
    ci_grad = [ 0.00000007, 0.00000023] S/E
  @SCF   22     -224.140684255206      -0.000002555705       0.000000302986
    ci      = [-0.90538867, 0.42458375]
    ci_grad = [ 0.00000137,-0.00000310] S/E
  @SCF   23     -224.140684446292      -0.000000191086       0.000000104035
    ci      = [-0.90538847, 0.42458418]
    ci_grad = [ 0.00000007,-0.00000029] S/E
  @SCF   24     -224.140683142960       0.000001303333       0.000000219444
    ci      = [-0.90538909, 0.42458284]
    ci_grad = [-0.00000088, 0.00000120] S/E
  @SCF   25     -224.245247749136      -0.104564606176       0.018116977096
    ci      = [-0.90538909, 0.42458284]
    ci_grad = [ 0.06491260,-0.09296398] S/E
  @SCF   26     -224.288529613536      -0.043281864401       0.012842744119
    ci      = [-0.90538909, 0.42458284]
    ci_grad = [ 0.02072108,-0.05129091] S/E
  @SCF   27     -224.300806613974      -0.012277000438       0.002332432170
    ci      = [-0.90538909, 0.42458284]
    ci_grad = [-0.00619036,-0.03660231] S/E
  @SCF   28     -224.308586846481      -0.007780232507       0.003260508848
    ci      = [-0.90538909, 0.42458284]
    ci_grad = [-0.00911369,-0.03303525] S/E
  @SCF   29     -224.310600455861      -0.002013609380       0.001454676700
    ci      = [-0.90538909, 0.42458284]
    ci_grad = [-0.01480508,-0.03145421] S/E
  @SCF   30     -224.310730420500      -0.000129964639       0.000651449541
    ci      = [-0.90538909, 0.42458284]
    ci_grad = [-0.01572328,-0.02940848] S/E
  @SCF   31     -224.310826348534      -0.000095928034       0.000848945722
    ci      = [-0.90538909, 0.42458284]
    ci_grad = [-0.01398314,-0.02650984] S/E
  @SCF   32     -224.310810298468       0.000016050066       0.000365998462
    ci      = [-0.90538909, 0.42458284]
    ci_grad = [-0.01386941,-0.02611949] S/E
  @SCF   33     -224.310816732008      -0.000006433539       0.000184367948
    ci      = [-0.88369967, 0.46805437]
    ci_grad = [-0.01371125,-0.02590095] S/E
  @SCF   34     -224.310817326462      -0.000000594454       0.000102163872
    ci      = [-0.88373569, 0.46798636]
    ci_grad = [ 0.00002227, 0.00004078] S/E
  @SCF   35     -224.310818925603      -0.000001599141       0.000010945171
    ci      = [-0.88371853, 0.46801875]
    ci_grad = [-0.00000894,-0.00002030] S/E
  @SCF   36     -224.310820855243      -0.000001929640       0.000008894935
    ci      = [-0.88370084, 0.46805216]
    ci_grad = [-0.00000898,-0.00002107] S/E
  @SCF   37     -224.310824963657      -0.000004108414       0.000005162206
    ci      = [-0.88366720, 0.46811567]
    ci_grad = [-0.00001668,-0.00004026] S/E
  @SCF   38     -224.310758795090       0.000066168566       0.000069742092
    ci      = [-0.88366720, 0.46811567]
    ci_grad = [ 0.00026013, 0.00063405] S/E
  @SCF   39     -224.310822873423      -0.000064078332       0.000065018783
    ci      = [-0.88366720, 0.46811567]
    ci_grad = [ 0.00006995,-0.00000483] S/E
  @SCF   40     -224.310928068336      -0.000105194914       0.000114803858
    ci      = [-0.88366720, 0.46811567]
    ci_grad = [-0.00042983,-0.00103174] S/E
  @SCF   41     -224.311416715633      -0.000488647297       0.000815024167
    ci      = [-0.88366720, 0.46811567]
    ci_grad = [-0.00392597,-0.00816344] S/E
  @SCF   42     -224.311423898508      -0.000007182875       0.000048551917
    ci      = [-0.87634153, 0.48169028]
    ci_grad = [-0.00445488,-0.00811969] S/E
  @SCF   43     -224.311426627071      -0.000002728562       0.000016990710
    ci      = [-0.87627773, 0.48180632]
    ci_grad = [-0.00003592,-0.00007098] S/E
  @SCF   44     -224.311474566287      -0.000047939216       0.000208518673
    ci      = [-0.87627773, 0.48180632]
    ci_grad = [-0.00094080,-0.00179634] S/E
  @SCF   45     -224.311484565057      -0.000009998770       0.000079738980
    ci      = [-0.87402880, 0.48587412]
    ci_grad = [-0.00134536,-0.00244071] S/E
  @SCF   46     -224.311480093212       0.000004471845       0.000041983999
    ci      = [-0.87434826, 0.48529900]
    ci_grad = [ 0.00018756, 0.00034713] S/E
  @SCF   47     -224.311479731276       0.000000361936       0.000002720038
    ci      = [-0.87436983, 0.48526014]
    ci_grad = [ 0.00001262, 0.00002348] S/E
  @SCF   48     -224.311477827326       0.000001903950       0.000013731225
    ci      = [-0.87447854, 0.48506421]
    ci_grad = [ 0.00006352, 0.00011844] S/E
  @SCF   49     -224.311474350873       0.000003476454       0.000023075187
    ci      = [-0.87466000, 0.48473693]
    ci_grad = [ 0.00010577, 0.00019802] S/E
  @SCF   50     -224.311475205834      -0.000000854961       0.000005399555
    ci      = [-0.87461714, 0.48481425]
    ci_grad = [-0.00002496,-0.00004679] S/E
  @SCF   51     -224.311475624070      -0.000000418236       0.000002721280
    ci      = [-0.87459578, 0.48485278]
    ci_grad = [-0.00001245,-0.00002332] S/E
  @SCF   52     -224.311478332656      -0.000002708586       0.000018258526
    ci      = [-0.87445050, 0.48511476]
    ci_grad = [-0.00008479,-0.00015842] S/E
  @SCF   53     -224.311478238939       0.000000093717       0.000000802615
    ci      = [-0.87445576, 0.48510528]
    ci_grad = [ 0.00000307, 0.00000573] S/E
  @SCF   54     -224.311479545364      -0.000001306425       0.000009573508
    ci      = [-0.87438081, 0.48524035]
    ci_grad = [-0.00004381,-0.00008164] S/E
  @SCF   55     -224.311477223795       0.000002321569       0.000016641654
    ci      = [-0.87451153, 0.48500473]
    ci_grad = [ 0.00007635, 0.00014246] S/E
  @SCF   56     -224.311476476140       0.000000747655       0.000004977141
    ci      = [-0.87455144, 0.48493277]
    ci_grad = [ 0.00002328, 0.00004353] S/E
  @SCF   57     -224.311484354695      -0.000007878556       0.000061145716
    ci      = [-0.87406479, 0.48580937]
    ci_grad = [-0.00028517,-0.00052930] S/E
  @SCF   58     -224.311483694778       0.000000659917       0.000008178634
    ci      = [-0.87411313, 0.48572238]
    ci_grad = [ 0.00002841, 0.00005248] S/E
  @SCF   59     -224.311481298441       0.000002396338       0.000020339055
    ci      = [-0.87427408, 0.48543262]
    ci_grad = [ 0.00009440, 0.00017495] S/E
  @SCF   60     -224.311489918136      -0.000008619695       0.000093415388
    ci      = [-0.87352994, 0.48677042]
    ci_grad = [-0.00043914,-0.00080576] S/E
  @SCF   61     -224.311490837739      -0.000000919603       0.000017502370
    ci      = [-0.87338985, 0.48702174]
    ci_grad = [-0.00008319,-0.00015107] S/E
  @SCF   62     -224.311491152940      -0.000000315202       0.000007249368
    ci      = [-0.87333197, 0.48712551]
    ci_grad = [-0.00003442,-0.00006235] S/E
  @SCF   63     -224.311490706513       0.000000446427       0.000010010987
    ci      = [-0.87341210, 0.48698183]
    ci_grad = [ 0.00004763, 0.00008634] S/E
  @SCF   64     -224.311491881873      -0.000001175360       0.000032231673
    ci      = [-0.87315503, 0.48744261]
    ci_grad = [-0.00015311,-0.00027668] S/E
  @SCF   65     -224.311491977739      -0.000000095866       0.000004278617
    ci      = [-0.87312226, 0.48750130]
    ci_grad = [-0.00001955,-0.00003522] S/E
  @SCF   66     -224.311492059435      -0.000000081696       0.000003990164
    ci      = [-0.87309029, 0.48755856]
    ci_grad = [-0.00001909,-0.00003435] S/E
  @SCF   67     -224.311491961085       0.000000098350       0.000004748031
    ci      = [-0.87312827, 0.48749053]
    ci_grad = [ 0.00002268, 0.00004082] S/E
  @SCF   68     -224.311492023839      -0.000000062754       0.000002957008
    ci      = [-0.87310479, 0.48753259]
    ci_grad = [-0.00001402,-0.00002524] S/E
  @SCF   69     -224.311492080988      -0.000000057149       0.000002983664
    ci      = [-0.87308101, 0.48757517]
    ci_grad = [-0.00001420,-0.00002554] S/E
  @SCF   70     -224.311492127834      -0.000000046846       0.000002731003
    ci      = [-0.87305917, 0.48761428]
    ci_grad = [-0.00001305,-0.00002346] S/E
  @SCF   71     -224.311492083891       0.000000043943       0.000002565902
    ci      = [-0.87307973, 0.48757747]
    ci_grad = [ 0.00001228, 0.00002208] S/E
  @SCF   72     -224.311492248171      -0.000000164281       0.000011984376
    ci      = [-0.87298364, 0.48774950]
    ci_grad = [-0.00005745,-0.00010316] S/E
  @SCF   73     -224.311492265839      -0.000000017667       0.000002057340
    ci      = [-0.87296715, 0.48777900]
    ci_grad = [-0.00000987,-0.00001769] S/E
  @SCF   74     -224.311492267140      -0.000000001301       0.000000197695
    ci      = [-0.87296580, 0.48778142]
    ci_grad = [-0.00000081,-0.00000145] S/E
  @SCF   75     -224.311492272352      -0.000000005212       0.000000705977
    ci      = [-0.87296021, 0.48779143]
    ci_grad = [-0.00000334,-0.00000600] S/E
  @SCF   76     -224.311492280998      -0.000000008647       0.000001283904
    ci      = [-0.87294993, 0.48780983]
    ci_grad = [-0.00000615,-0.00001103] S/E
  @SCF   77     -224.311492301774      -0.000000020776       0.000004471229
    ci      = [-0.87291408, 0.48787397]
    ci_grad = [-0.00002146,-0.00003845] S/E
  @SCF   78     -224.311492301140       0.000000000634       0.000000221193
    ci      = [-0.87291573, 0.48787102]
    ci_grad = [ 0.00000099, 0.00000177] S/E
  @SCF   79     -224.311492303923      -0.000000002783       0.000007698474
    ci      = [-0.87285394, 0.48798155]
    ci_grad = [-0.00003702,-0.00006623] S/E
  @SCF   80     -224.311492307269      -0.000000003346       0.000004797397
    ci      = [-0.87289244, 0.48791268]
    ci_grad = [ 0.00002307, 0.00004127] S/E
  @SCF   81     -224.311492306785       0.000000000484       0.000003289349
    ci      = [-0.87286604, 0.48795991]
    ci_grad = [-0.00001582,-0.00002830] S/E
  @SCF   82     -224.311492307993      -0.000000001208       0.000001531533
    ci      = [-0.87287833, 0.48793792]
    ci_grad = [ 0.00000737, 0.00001318] S/E
  @SCF   83     -224.311492307978       0.000000000015       0.000000060499
    ci      = [-0.87287785, 0.48793879]
    ci_grad = [-0.00000029,-0.00000052] S/E
  @SCF   84     -224.311492308000      -0.000000000022       0.000000090662
    ci      = [-0.87287858, 0.48793749]
    ci_grad = [ 0.00000044, 0.00000078] S/E
  @SCF   85     -224.311492308028      -0.000000000028       0.000000226582
    ci      = [-0.87288039, 0.48793423]
    ci_grad = [ 0.00000109, 0.00000195] S/E
  @SCF   86     -224.311492308025       0.000000000002       0.000000041400
    ci      = [-0.87288006, 0.48793483]
    ci_grad = [-0.00000020,-0.00000036] S/E
  @SCF   87     -224.311492308028      -0.000000000003       0.000000056457
    ci      = [-0.87288051, 0.48793402]
    ci_grad = [ 0.00000027, 0.00000049] S/E
  @SCF   88     -224.311492308028       0.000000000000       0.000000003720
    ci      = [-0.87288054, 0.48793397]
    ci_grad = [ 0.00000002, 0.00000003] S/E
  @SCF   89     -224.311492308029      -0.000000000001       0.000000046266
    ci      = [-0.87288092, 0.48793330]
    ci_grad = [ 0.00000022, 0.00000040] S/E
  @SCF   90     -224.311492308029      -0.000000000000       0.000000021842
    ci      = [-0.87288074, 0.48793361]
    ci_grad = [-0.00000011,-0.00000019] S/E
  @SCF   91     -224.311492308029      -0.000000000000       0.000000011888
    ci      = [-0.87288084, 0.48793344]
    ci_grad = [ 0.00000006, 0.00000010] S/E
  @SCF   92     -224.311492308028       0.000000000001       0.000000000952
    ci      = [-0.87288083, 0.48793346]
    ci_grad = [-0.00000000,-0.00000001] S/E
  @SCF   93     -224.311492308029      -0.000000000001       0.000000001466
    ci      = [-0.87288084, 0.48793344]
    ci_grad = [ 0.00000001, 0.00000001] S/E
  @SCF   94     -224.311492308029       0.000000000000       0.000000000725
    ci      = [-0.87288085, 0.48793343]
    ci_grad = [ 0.00000000, 0.00000001] S/E
  @SCF   95     -224.311492308029       0.000000000000       0.000000000781
    ci      = [-0.87288085, 0.48793342]
    ci_grad = [ 0.00000000, 0.00000001] S/E
  @SCF   96     -224.311492308029       0.000000000000       0.000000000446
    ci      = [-0.87288086, 0.48793341]
    ci_grad = [ 0.00000000, 0.00000000] S/E
  @SCF   97     -224.311492308029      -0.000000000001       0.000000000377
    ci      = [-0.87288086, 0.48793340]
    ci_grad = [ 0.00000000, 0.00000000] S/E
  @SCF   98     -224.311492308029       0.000000000000       0.000000000066
    ci      = [-0.87288086, 0.48793340]
    ci_grad = [-0.00000000,-0.00000000] S/E
  @SCF   99     -224.311492308028       0.000000000001       0.000000000154
    ci      = [-0.87288086, 0.48793340]
    ci_grad = [ 0.00000000, 0.00000000] S/E
  @SCF  100     -224.311492308029      -0.000000000000       0.000000000007
    ci      = [-0.87288086, 0.48793340]
    ci_grad = [-0.00000000,-0.00000000] S/E
  @SCF  101     -224.311492308029      -0.000000000000       0.000000000034
    ci      = [-0.87288086, 0.48793340]
    ci_grad = [ 0.00000000, 0.00000000] S/E
  @SCF  102     -224.311492308029      -0.000000000000       0.000000000011
    ci      = [-0.87288086, 0.48793340]
    ci_grad = [-0.00000000,-0.00000000] S/E
  @SCF  103     -224.311492308028       0.000000000001       0.000000000004
    ci      = [-0.87288086, 0.48793340]
    ci_grad = [ 0.00000000, 0.00000000] S/E
  @SCF  104     -224.311492308029      -0.000000000001       0.000000000009
    ci      = [-0.87288086, 0.48793340]
    ci_grad = [ 0.00000000, 0.00000000] S/E
  @SCF  105     -224.311492308029      -0.000000000000       0.000000000014
    ci      = [-0.87288086, 0.48793340]
    ci_grad = [-0.00000000,-0.00000000] S/E
  @SCF  106     -224.311492308029      -0.000000000000       0.000000000001
    ci      = [-0.87288086, 0.48793340]
    ci_grad = [-0.00000000,-0.00000000] S/E
  @SCF  107     -224.311492308029       0.000000000000       0.000000000001
    ci      = [-0.87288086, 0.48793340]
    ci_grad = [-0.00000000,-0.00000000] S/E
  @SCF  108     -224.311492308029      -0.000000000000       0.000000000002
    ci      = [-0.87288086, 0.48793340]
    ci_grad = [ 0.00000000, 0.00000000] S/E
  @SCF  109     -224.311492308030      -0.000000000001       0.000000000002
    ci      = [-0.87288086, 0.48793340]
    ci_grad = [ 0.00000000, 0.00000000] S/E
  @SCF  110     -224.311492308030       0.000000000000       0.000000000001
    ci      = [-0.87288086, 0.48793340]
    ci_grad = [-0.00000000,-0.00000000] S/E
  @SCF  111     -224.311492308029       0.000000000000       0.000000000000
    ci      = [-0.87288086, 0.48793340]
    ci_grad = [-0.00000000,-0.00000000] S/E
  @SCF  112     -224.311492308030      -0.000000000000       0.000000000000
    ci      = [-0.87288086, 0.48793340]
    ci_grad = [ 0.00000000,-0.00000000] S/E
  @SCF  113     -224.311492308030      -0.000000000000       0.000000000001
    ci      = [-0.87288086, 0.48793340]
    ci_grad = [-0.00000000,-0.00000000] S/E
  @SCF  114     -224.311492308029       0.000000000001       0.000000000000
    ci      = [-0.87288086, 0.48793340]
    ci_grad = [-0.00000000, 0.00000000] S/E
  @SCF  115     -224.311492308029      -0.000000000000       0.000000000000
    ci      = [-0.87288086, 0.48793340]
    ci_grad = [ 0.00000000, 0.00000000] S/E
  @SCF  116     -224.311492308029       0.000000000000       0.000000000000
    ci      = [-0.87288086, 0.48793340]
    ci_grad = [ 0.00000000, 0.00000000] S/E
  @SCF  117     -224.311492308029      -0.000000000000       0.000000000000
    ci      = [-0.87288086, 0.48793340]
    ci_grad = [-0.00000000,-0.00000000] S/E
  @SCF  118     -224.311492308029       0.000000000000       0.000000000000
    ci      = [-0.87288086, 0.48793340]
    ci_grad = [ 0.00000000, 0.00000000] S/E
  @SCF  119     -224.311492308029       0.000000000000       0.000000000000
    ci      = [-0.87288086, 0.48793340]
    ci_grad = [-0.00000000,-0.00000000] S/E
  @SCF  120     -224.311492308029      -0.000000000000       0.000000000000
    ci      = [-0.87288086, 0.48793340]
    ci_grad = [-0.00000000,-0.00000000] S/E
  @SCF  121     -224.311492308029      -0.000000000000       0.000000000000
    ci      = [-0.87288086, 0.48793340]
    ci_grad = [-0.00000000,-0.00000000] S/E
  @SCF  122     -224.311492308029      -0.000000000000       0.000000000000
    ci      = [-0.87288086, 0.48793340]
    ci_grad = [ 0.00000000,-0.00000000] S/E
  @SCF  123     -224.311492308029       0.000000000000       0.000000000000
    ci      = [-0.87288086, 0.48793340]
    ci_grad = [-0.00000000,-0.00000000] S/E
  @SCF  124     -224.311492308029       0.000000000000       0.000000000000
    ci      = [-0.87288086, 0.48793340]
    ci_grad = [-0.00000000, 0.00000000] S/E
  @SCF  125     -224.311492308029      -0.000000000000       0.000000000000
    ci      = [-0.87288086, 0.48793340]
    ci_grad = [ 0.00000000,-0.00000000] S/E
  @SCF  126     -224.311492308029       0.000000000000       0.000000000000
    ci      = [-0.87288086, 0.48793340]
    ci_grad = [-0.00000000, 0.00000000] S/E
  @SCF  127     -224.311492308029      -0.000000000000       0.000000000000
    ci      = [-0.87288086, 0.48793340]
    ci_grad = [ 0.00000000, 0.00000000] S/E
  @SCF  128     -224.311492308029       0.000000000000       0.000000000000
    ci      = [-0.87288086, 0.48793340]
    ci_grad = [-0.00000000, 0.00000000] S/E
  @SCF  129     -224.311492308030      -0.000000000001       0.000000000000
    ci      = [-0.87288086, 0.48793340]
    ci_grad = [ 0.00000000,-0.00000000] S/E
  @SCF  130     -224.311492308029       0.000000000000       0.000000000000
    ci      = [-0.87288086, 0.48793340]
    ci_grad = [-0.00000000, 0.00000000] S/E
  @SCF  131     -224.311492308029       0.000000000000       0.000000000000
    ci      = [-0.87288086, 0.48793340]
    ci_grad = [-0.00000000, 0.00000000] S/E
  @SCF  132     -224.311492308029       0.000000000000       0.000000000000
    ci      = [-0.87288086, 0.48793340]
    ci_grad = [-0.00000000, 0.00000000] S/E
  @SCF  133     -224.311492308029       0.000000000000       0.000000000000
    ci      = [-0.87288086, 0.48793340]
    ci_grad = [-0.00000000, 0.00000000] S/E
  @SCF  134     -224.311492308029      -0.000000000000       0.000000000000
    ci      = [-0.87288086, 0.48793340]
    ci_grad = [ 0.00000000,-0.00000000] S/E
  @SCF  135     -224.311492308029      -0.000000000000       0.000000000000
    ci      = [-0.87288086, 0.48793340]
    ci_grad = [ 0.00000000,-0.00000000] S/E
  @SCF  136     -224.311492308029       0.000000000000       0.000000000000
    ci      = [-0.87288086, 0.48793340]
    ci_grad = [-0.00000000, 0.00000000] S/E
  @SCF  137     -224.311492308030      -0.000000000001       0.000000000000
    ci      = [-0.87288086, 0.48793340]
    ci_grad = [ 0.00000000,-0.00000000] S/E
  @SCF  138     -224.311492308029       0.000000000000       0.000000000000
    ci      = [-0.87288086, 0.48793340]
    ci_grad = [-0.00000000, 0.00000000] S/E
  @SCF  139     -224.311492308029       0.000000000000       0.000000000000
    ci      = [-0.87288086, 0.48793340]
    ci_grad = [-0.00000000,-0.00000000] S/E
  @SCF  140     -224.311492308029       0.000000000000       0.000000000000
    ci      = [-0.87288086, 0.48793340]
    ci_grad = [-0.00000000, 0.00000000] S/E
  @SCF  141     -224.311492308030      -0.000000000000       0.000000000000
    ci      = [-0.87288086, 0.48793340]
    ci_grad = [ 0.00000000,-0.00000000] S/E
  @SCF  142     -224.311492308029       0.000000000000       0.000000000000
    ci      = [-0.87288086, 0.48793340]
    ci_grad = [-0.00000000, 0.00000000] S/E
  @SCF  143     -224.311492308029      -0.000000000000       0.000000000000
    ci      = [-0.87288086, 0.48793340]
    ci_grad = [-0.00000000,-0.00000000] S/E
  @SCF  144     -224.311492308029      -0.000000000000       0.000000000000
    ci      = [-0.87288086, 0.48793340]
    ci_grad = [ 0.00000000,-0.00000000] S/E
  @SCF  145     -224.311492308029       0.000000000000       0.000000000000
    ci      = [-0.87288086, 0.48793340]
    ci_grad = [-0.00000000, 0.00000000] S/E
  @SCF  146     -224.311492308029      -0.000000000000       0.000000000000
    ci      = [-0.87288086, 0.48793340]
    ci_grad = [ 0.00000000,-0.00000000] S/E
  @SCF  147     -224.311492308029       0.000000000000       0.000000000000
    ci      = [-0.87288086, 0.48793340]
    ci_grad = [-0.00000000, 0.00000000] S/E
  @SCF  148     -224.311492308029       0.000000000000       0.000000000000
    ci      = [-0.87288086, 0.48793340]
    ci_grad = [-0.00000000, 0.00000000] S/E
  @SCF  149     -224.311492308029      -0.000000000000       0.000000000000
    ci      = [-0.87288086, 0.48793340]
    ci_grad = [ 0.00000000,-0.00000000] S/E
  @SCF  150     -224.311492308029       0.000000000000       0.000000000000
    ci      = [-0.87288086, 0.48793340]
    ci_grad = [-0.00000000,-0.00000000] S/E
  @SCF  151     -224.311492308029       0.000000000000       0.000000000000
    ci      = [-0.87288086, 0.48793340]
    ci_grad = [-0.00000000, 0.00000000] S/E
  @SCF  152     -224.311492308029       0.000000000000       0.000000000000
    ci      = [-0.87288086, 0.48793340]
    ci_grad = [-0.00000000, 0.00000000] S/E
  @SCF  153     -224.311492308029       0.000000000000       0.000000000000
    ci      = [-0.87288086, 0.48793340]
    ci_grad = [-0.00000000, 0.00000000] S/E
  @SCF  154     -224.311492308029      -0.000000000000       0.000000000000
    ci      = [-0.87288086, 0.48793340]
    ci_grad = [ 0.00000000,-0.00000000] S/E
  @SCF  155     -224.311492308029       0.000000000000       0.000000000000
    ci      = [-0.87288086, 0.48793340]
    ci_grad = [-0.00000000, 0.00000000] S/E
  @SCF  156     -224.311492308029       0.000000000000       0.000000000000
    ci      = [-0.87288086, 0.48793340]
    ci_grad = [-0.00000000, 0.00000000] S/E
  @SCF  157     -224.311492308029      -0.000000000000       0.000000000000
    ci      = [-0.87288086, 0.48793340]
    ci_grad = [ 0.00000000,-0.00000000] S/E
  @SCF  158     -224.311492308030      -0.000000000000       0.000000000000
    ci      = [-0.87288086, 0.48793340]
    ci_grad = [ 0.00000000,-0.00000000] S/E
  @SCF  159     -224.311492308030      -0.000000000000       0.000000000000
    ci      = [-0.87288086, 0.48793340]
    ci_grad = [ 0.00000000,-0.00000000] S/E
  @SCF  160     -224.311492308029       0.000000000001       0.000000000000
    ci      = [-0.87288086, 0.48793340]
    ci_grad = [-0.00000000, 0.00000000] S/E
  @SCF  161     -224.311492308030      -0.000000000000       0.000000000000
    ci      = [-0.87288086, 0.48793340]
    ci_grad = [ 0.00000000,-0.00000000] S/E
  @SCF  162     -224.311492308029       0.000000000000       0.000000000000
    ci      = [-0.87288086, 0.48793340]
    ci_grad = [-0.00000000, 0.00000000] S/E
  @SCF  163     -224.311492308029      -0.000000000000       0.000000000000
    ci      = [-0.87288086, 0.48793340]
    ci_grad = [ 0.00000000,-0.00000000] S/E
  @SCF  164     -224.311492308029       0.000000000000       0.000000000000
    ci      = [-0.87288086, 0.48793340]
    ci_grad = [-0.00000000, 0.00000000] S/E
  @SCF  165     -224.311492308029      -0.000000000000       0.000000000000
    ci      = [-0.87288086, 0.48793340]
    ci_grad = [ 0.00000000, 0.00000000] S/E
  @SCF  166     -224.311492308030      -0.000000000001       0.000000000000
    ci      = [-0.87288086, 0.48793340]
    ci_grad = [ 0.00000000,-0.00000000] S/E
  @SCF  167     -224.311492308030       0.000000000000       0.000000000000
    ci      = [-0.87288086, 0.48793340]
    ci_grad = [-0.00000000, 0.00000000] S/E
  @SCF  168     -224.311492308029       0.000000000000       0.000000000000
    ci      = [-0.87288086, 0.48793340]
    ci_grad = [-0.00000000, 0.00000000] S/E
  @SCF  169     -224.311492308029      -0.000000000000       0.000000000000
    ci      = [-0.87288086, 0.48793340]
    ci_grad = [ 0.00000000,-0.00000000] S/E
  @SCF  170     -224.311492308029       0.000000000000       0.000000000000
    ci      = [-0.87288086, 0.48793340]
    ci_grad = [-0.00000000, 0.00000000] S/E
  @SCF  171     -224.311492308030      -0.000000000000       0.000000000000
    ci      = [-0.87288086, 0.48793340]
    ci_grad = [ 0.00000000,-0.00000000] S/E
  @SCF  172     -224.311492308029       0.000000000000       0.000000000000
    ci      = [-0.87288086, 0.48793340]
    ci_grad = [-0.00000000, 0.00000000] S/E
  @SCF  173     -224.311492308029      -0.000000000000       0.000000000000
    ci      = [-0.87288086, 0.48793340]
    ci_grad = [ 0.00000000,-0.00000000] S/E
  @SCF  174     -224.311492308029       0.000000000000       0.000000000000
    ci      = [-0.87288086, 0.48793340]
    ci_grad = [-0.00000000, 0.00000000] S/E
  @SCF  175     -224.311492308029       0.000000000001       0.000000000000
    ci      = [-0.87288086, 0.48793340]
    ci_grad = [-0.00000000, 0.00000000] S/E
  @SCF  176     -224.311492308030      -0.000000000001       0.000000000000
    ci      = [-0.87288086, 0.48793340]
    ci_grad = [ 0.00000000,-0.00000000] S/E
  @SCF  177     -224.311492308029       0.000000000000       0.000000000000
    ci      = [-0.87288086, 0.48793340]
    ci_grad = [-0.00000000, 0.00000000] S/E
  @SCF  178     -224.311492308029       0.000000000001       0.000000000000
    ci      = [-0.87288086, 0.48793340]
    ci_grad = [-0.00000000, 0.00000000] S/E
  @SCF  179     -224.311492308029      -0.000000000000       0.000000000000
    ci      = [-0.87288086, 0.48793340]
    ci_grad = [ 0.00000000,-0.00000000] S/E
  @SCF  180     -224.311492308029       0.000000000000       0.000000000000
    ci      = [-0.87288086, 0.48793340]
    ci_grad = [-0.00000000, 0.00000000] S/E
  @SCF  181     -224.311492308029      -0.000000000000       0.000000000000
    ci      = [-0.87288086, 0.48793340]
    ci_grad = [ 0.00000000,-0.00000000] S/E
  @SCF  182     -224.311492308030      -0.000000000000       0.000000000000
    ci      = [-0.87288086, 0.48793340]
    ci_grad = [ 0.00000000,-0.00000000] S/E
  @SCF  183     -224.311492308029       0.000000000000       0.000000000000
    ci      = [-0.87288086, 0.48793340]
    ci_grad = [-0.00000000, 0.00000000] S/E
  @SCF  184     -224.311492308030      -0.000000000000       0.000000000000
    ci      = [-0.87288086, 0.48793340]
    ci_grad = [ 0.00000000,-0.00000000] S/E
  @SCF  185     -224.311492308030       0.000000000000       0.000000000000
    ci      = [-0.87288086, 0.48793340]
    ci_grad = [-0.00000000, 0.00000000] S/E
  @SCF  186     -224.311492308029       0.000000000000       0.000000000000
    ci      = [-0.87288086, 0.48793340]
    ci_grad = [-0.00000000, 0.00000000] S/E
  @SCF  187     -224.311492308029       0.000000000000       0.000000000000
    ci      = [-0.87288086, 0.48793340]
    ci_grad = [-0.00000000,-0.00000000] S/E
  @SCF  188     -224.311492308030      -0.000000000001       0.000000000000
    ci      = [-0.87288086, 0.48793340]
    ci_grad = [ 0.00000000,-0.00000000] S/E
  @SCF  189     -224.311492308029       0.000000000001       0.000000000000
    ci      = [-0.87288086, 0.48793340]
    ci_grad = [-0.00000000, 0.00000000] S/E
  @SCF  190     -224.311492308029      -0.000000000001       0.000000000000
    ci      = [-0.87288086, 0.48793340]
    ci_grad = [ 0.00000000,-0.00000000] S/E
  @SCF  191     -224.311492308030      -0.000000000000       0.000000000000
    ci      = [-0.87288086, 0.48793340]
    ci_grad = [ 0.00000000,-0.00000000] S/E
  @SCF  192     -224.311492308030      -0.000000000000       0.000000000000
    ci      = [-0.87288086, 0.48793340]
    ci_grad = [ 0.00000000,-0.00000000] S/E
  @SCF  193     -224.311492308029       0.000000000000       0.000000000000
    ci      = [-0.87288086, 0.48793340]
    ci_grad = [-0.00000000, 0.00000000] S/E
  @SCF  194     -224.311492308029      -0.000000000000       0.000000000000
    ci      = [-0.87288086, 0.48793340]
    ci_grad = [ 0.00000000,-0.00000000] S/E
  @SCF  195     -224.311492308029       0.000000000000       0.000000000000
    ci      = [-0.87288086, 0.48793340]
    ci_grad = [-0.00000000, 0.00000000] S/E
  @SCF  196     -224.311492308029      -0.000000000000       0.000000000000
    ci      = [-0.87288086, 0.48793340]
    ci_grad = [ 0.00000000,-0.00000000] S/E
  @SCF  197     -224.311492308029      -0.000000000000       0.000000000000
    ci      = [-0.87288086, 0.48793340]
    ci_grad = [ 0.00000000,-0.00000000] S/E
  @SCF  198     -224.311492308029       0.000000000000       0.000000000000
    ci      = [-0.87288086, 0.48793340]
    ci_grad = [-0.00000000, 0.00000000] S/E
  @SCF  199     -224.311492308029      -0.000000000000       0.000000000000
    ci      = [-0.87288086, 0.48793340]
    ci_grad = [ 0.00000000,-0.00000000] S/E
  @SCF  200     -224.311492308029      -0.000000000000       0.000000000000
    ci      = [-0.87288086, 0.48793340]
    ci_grad = [ 0.00000000, 0.00000000] S/E
  @SCF  201     -224.311492308029       0.000000000000       0.000000000000
    ci      = [-0.87288086, 0.48793340]
    ci_grad = [-0.00000000,-0.00000000] S/E
  @SCF  202     -224.311492308029      -0.000000000000       0.000000000000
    ci      = [-0.87288086, 0.48793340]
    ci_grad = [ 0.00000000, 0.00000000] S/E
  @SCF  203     -224.311492308029       0.000000000001       0.000000000000
    ci      = [-0.87288086, 0.48793340]
    ci_grad = [-0.00000000, 0.00000000] S/E
  @SCF  204     -224.311492308029      -0.000000000001       0.000000000000
    ci      = [-0.87288086, 0.48793340]
    ci_grad = [ 0.00000000,-0.00000000] S/E
  @SCF  205     -224.311492308030      -0.000000000000       0.000000000000
    ci      = [-0.87288086, 0.48793340]
    ci_grad = [ 0.00000000,-0.00000000] S/E
  @SCF  206     -224.311492308029       0.000000000000       0.000000000000
    ci      = [-0.87288086, 0.48793340]
    ci_grad = [-0.00000000, 0.00000000] S/E
  @SCF  207     -224.311492308030      -0.000000000000       0.000000000000
    ci      = [-0.87288086, 0.48793340]
    ci_grad = [ 0.00000000,-0.00000000] S/E
  @SCF  208     -224.311492308030       0.000000000000       0.000000000000
    ci      = [-0.87288086, 0.48793340]
    ci_grad = [-0.00000000, 0.00000000] S/E
  @SCF  209     -224.311492308029       0.000000000000       0.000000000000
    ci      = [-0.87288086, 0.48793340]
    ci_grad = [-0.00000000, 0.00000000] S/E
  @SCF  210     -224.311492308029       0.000000000000       0.000000000000
    ci      = [-0.87288086, 0.48793340]
    ci_grad = [-0.00000000, 0.00000000] S/E
  @SCF  211     -224.311492308029       0.000000000000       0.000000000000
    ci      = [-0.87288086, 0.48793340]
    ci_grad = [-0.00000000, 0.00000000] S/E
  @SCF  212     -224.311492308029      -0.000000000000       0.000000000000
    ci      = [-0.87288086, 0.48793340]
    ci_grad = [ 0.00000000,-0.00000000] S/E
  @SCF  213     -224.311492308029       0.000000000000       0.000000000000
    ci      = [-0.87288086, 0.48793340]
    ci_grad = [-0.00000000, 0.00000000] S/E
  @SCF  214     -224.311492308029      -0.000000000000       0.000000000000
    ci      = [-0.87288086, 0.48793340]
    ci_grad = [ 0.00000000,-0.00000000] S/E
  @SCF  215     -224.311492308029       0.000000000000       0.000000000000
    ci      = [-0.87288086, 0.48793340]
    ci_grad = [-0.00000000, 0.00000000] S/E
  @SCF  216     -224.311492308029       0.000000000001       0.000000000000
    ci      = [-0.87288086, 0.48793340]
    ci_grad = [-0.00000000, 0.00000000] S/E
  @SCF  217     -224.311492308030      -0.000000000001       0.000000000000
    ci      = [-0.87288086, 0.48793340]
    ci_grad = [ 0.00000000,-0.00000000] S/E
  @SCF  218     -224.311492308029       0.000000000000       0.000000000000
    ci      = [-0.87288086, 0.48793340]
    ci_grad = [-0.00000000, 0.00000000] S/E
  @SCF  219     -224.311492308030      -0.000000000000       0.000000000000
    ci      = [-0.87288086, 0.48793340]
    ci_grad = [ 0.00000000,-0.00000000] S/E
  @SCF  220     -224.311492308029       0.000000000001       0.000000000000
    ci      = [-0.87288086, 0.48793340]
    ci_grad = [-0.00000000, 0.00000000] S/E
  @SCF  221     -224.311492308029      -0.000000000000       0.000000000000
    ci      = [-0.87288086, 0.48793340]
    ci_grad = [ 0.00000000,-0.00000000] S/E
  @SCF  222     -224.311492308029      -0.000000000000       0.000000000000
    ci      = [-0.87288086, 0.48793340]
    ci_grad = [ 0.00000000,-0.00000000] S/E
  @SCF  223     -224.311492308030      -0.000000000000       0.000000000000
    ci      = [-0.87288086, 0.48793340]
    ci_grad = [ 0.00000000,-0.00000000] S/E
  @SCF  224     -224.311492308029       0.000000000000       0.000000000000
    ci      = [-0.87288086, 0.48793340]
    ci_grad = [-0.00000000, 0.00000000] S/E
  @SCF  225     -224.311492308030      -0.000000000000       0.000000000000
    ci      = [-0.87288086, 0.48793340]
    ci_grad = [ 0.00000000,-0.00000000] S/E
  @SCF  226     -224.311492308029       0.000000000000       0.000000000000
    ci      = [-0.87288086, 0.48793340]
    ci_grad = [-0.00000000, 0.00000000] S/E
  @SCF  227     -224.311492308029       0.000000000000       0.000000000000
    ci      = [-0.87288086, 0.48793340]
    ci_grad = [-0.00000000, 0.00000000] S/E
  @SCF  228     -224.311492308029      -0.000000000000       0.000000000000
    ci      = [-0.87288086, 0.48793340]
    ci_grad = [ 0.00000000,-0.00000000] S/E
  @SCF  229     -224.311492308029       0.000000000000       0.000000000000
    ci      = [-0.87288086, 0.48793340]
    ci_grad = [ 0.00000000, 0.00000000] S/E
  @SCF  230     -224.311492308029       0.000000000000       0.000000000000
    ci      = [-0.87288086, 0.48793340]
    ci_grad = [-0.00000000, 0.00000000] S/E
  @SCF  231     -224.311492308030      -0.000000000000       0.000000000000
    ci      = [-0.87288086, 0.48793340]
    ci_grad = [ 0.00000000,-0.00000000] S/E
  @SCF  232     -224.311492308029       0.000000000000       0.000000000000
    ci      = [-0.87288086, 0.48793340]
    ci_grad = [-0.00000000, 0.00000000] S/E
  @SCF  233     -224.311492308029      -0.000000000000       0.000000000000
    ci      = [-0.87288086, 0.48793340]
    ci_grad = [ 0.00000000, 0.00000000] S/E
  @SCF  234     -224.311492308030      -0.000000000000       0.000000000000
    ci      = [-0.87288086, 0.48793340]
    ci_grad = [ 0.00000000,-0.00000000] S/E
  @SCF  235     -224.311492308029       0.000000000000       0.000000000000
    ci      = [-0.87288086, 0.48793340]
    ci_grad = [-0.00000000, 0.00000000] S/E
  @SCF  236     -224.311492308029       0.000000000000       0.000000000000
    ci      = [-0.87288086, 0.48793340]
    ci_grad = [-0.00000000, 0.00000000] S/E
  @SCF  237     -224.311492308029      -0.000000000000       0.000000000000
    ci      = [-0.87288086, 0.48793340]
    ci_grad = [ 0.00000000,-0.00000000] S/E
  @SCF  238     -224.311492308030      -0.000000000001       0.000000000000
    ci      = [-0.87288086, 0.48793340]
    ci_grad = [ 0.00000000,-0.00000000] S/E
  @SCF  239     -224.311492308029       0.000000000001       0.000000000000
    ci      = [-0.87288086, 0.48793340]
    ci_grad = [-0.00000000, 0.00000000] S/E
  @SCF  240     -224.311492308030      -0.000000000000       0.000000000000
    ci      = [-0.87288086, 0.48793340]
    ci_grad = [ 0.00000000,-0.00000000] S/E
  @SCF  241     -224.311492308029       0.000000000000       0.000000000000
    ci      = [-0.87288086, 0.48793340]
    ci_grad = [-0.00000000, 0.00000000] S/E
  @SCF  242     -224.311492308029       0.000000000000       0.000000000000
    ci      = [-0.87288086, 0.48793340]
    ci_grad = [-0.00000000, 0.00000000] S/E
  @SCF  243     -224.311492308030      -0.000000000000       0.000000000000
    ci      = [-0.87288086, 0.48793340]
    ci_grad = [ 0.00000000,-0.00000000] S/E
  @SCF  244     -224.311492308029       0.000000000000       0.000000000000
    ci      = [-0.87288086, 0.48793340]
    ci_grad = [-0.00000000, 0.00000000] S/E
  @SCF  245     -224.311492308029       0.000000000000       0.000000000000
    ci      = [-0.87288086, 0.48793340]
    ci_grad = [ 0.00000000, 0.00000000] S/E
  @SCF  246     -224.311492308029       0.000000000000       0.000000000000
    ci      = [-0.87288086, 0.48793340]
    ci_grad = [-0.00000000, 0.00000000] S/E
  @SCF  247     -224.311492308030      -0.000000000001       0.000000000000
    ci      = [-0.87288086, 0.48793340]
    ci_grad = [ 0.00000000,-0.00000000] S/E
  @SCF  248     -224.311492308029       0.000000000000       0.000000000000
    ci      = [-0.87288086, 0.48793340]
    ci_grad = [-0.00000000, 0.00000000] S/E
  @SCF  249     -224.311492308029       0.000000000000       0.000000000000
    ci      = [-0.87288086, 0.48793340]
    ci_grad = [-0.00000000, 0.00000000] S/E
  @SCF  250     -224.311492308029      -0.000000000000       0.000000000000
    ci      = [-0.87288086, 0.48793340]
    ci_grad = [ 0.00000000,-0.00000000] S/E
  @SCF  251     -224.311492308029      -0.000000000000       0.000000000000
    ci      = [-0.87288086, 0.48793340]
    ci_grad = [ 0.00000000, 0.00000000] S/E
  @SCF  252     -224.311492308029       0.000000000000       0.000000000000
    ci      = [-0.87288086, 0.48793340]
    ci_grad = [-0.00000000, 0.00000000] S/E
  @SCF  253     -224.311492308029      -0.000000000000       0.000000000000
    ci      = [-0.87288086, 0.48793340]
    ci_grad = [ 0.00000000,-0.00000000] S/E
  @SCF  254     -224.311492308029       0.000000000000       0.000000000000
    ci      = [-0.87288086, 0.48793340]
    ci_grad = [-0.00000000,-0.00000000] S/E
  @SCF  255     -224.311492308029      -0.000000000000       0.000000000000
    ci      = [-0.87288086, 0.48793340]
    ci_grad = [ 0.00000000,-0.00000000] S/E
  @SCF  256     -224.311492308029       0.000000000000       0.000000000000
    ci      = [-0.87288086, 0.48793340]
    ci_grad = [-0.00000000, 0.00000000] S/E
  @SCF  257     -224.311492308029      -0.000000000000       0.000000000000
    ci      = [-0.87288086, 0.48793340]
    ci_grad = [ 0.00000000,-0.00000000] S/E
  @SCF  258     -224.311492308029       0.000000000000       0.000000000000
    ci      = [-0.87288086, 0.48793340]
    ci_grad = [-0.00000000, 0.00000000] S/E
  @SCF  259     -224.311492308029       0.000000000000       0.000000000000
    ci      = [-0.87288086, 0.48793340]
    ci_grad = [-0.00000000, 0.00000000] S/E
  @SCF  260     -224.311492308029      -0.000000000000       0.000000000000
    ci      = [-0.87288086, 0.48793340]
    ci_grad = [ 0.00000000, 0.00000000] S/E
  @SCF  261     -224.311492308029      -0.000000000000       0.000000000000
    ci      = [-0.87288086, 0.48793340]
    ci_grad = [ 0.00000000,-0.00000000] S/E
  @SCF  262     -224.311492308029       0.000000000000       0.000000000000
    ci      = [-0.87288086, 0.48793340]
    ci_grad = [-0.00000000, 0.00000000] S/E
  @SCF  263     -224.311492308029      -0.000000000000       0.000000000000
    ci      = [-0.87288086, 0.48793340]
    ci_grad = [ 0.00000000,-0.00000000] S/E
  @SCF  264     -224.311492308029      -0.000000000000       0.000000000000
    ci      = [-0.87288086, 0.48793340]
    ci_grad = [ 0.00000000,-0.00000000] S/E
  @SCF  265     -224.311492308030      -0.000000000000       0.000000000000
    ci      = [-0.87288086, 0.48793340]
    ci_grad = [ 0.00000000,-0.00000000] S/E
  @SCF  266     -224.311492308029       0.000000000001       0.000000000000
    ci      = [-0.87288086, 0.48793340]
    ci_grad = [-0.00000000, 0.00000000] S/E
  @SCF  267     -224.311492308029      -0.000000000000       0.000000000000
    ci      = [-0.87288086, 0.48793340]
    ci_grad = [ 0.00000000, 0.00000000] S/E
  @SCF  268     -224.311492308029       0.000000000000       0.000000000000
    ci      = [-0.87288086, 0.48793340]
    ci_grad = [-0.00000000,-0.00000000] S/E
  @SCF  269     -224.311492308029      -0.000000000000       0.000000000000
    ci      = [-0.87288086, 0.48793340]
    ci_grad = [ 0.00000000,-0.00000000] S/E
  @SCF  270     -224.311492308029      -0.000000000000       0.000000000000
    ci      = [-0.87288086, 0.48793340]
    ci_grad = [ 0.00000000,-0.00000000] S/E
  @SCF  271     -224.311492308029      -0.000000000000       0.000000000000
    ci      = [-0.87288086, 0.48793340]
    ci_grad = [ 0.00000000,-0.00000000] S/E
  @SCF  272     -224.311492308029       0.000000000000       0.000000000000
    ci      = [-0.87288086, 0.48793340]
    ci_grad = [ 0.00000000, 0.00000000]
  =========================================================================================

      * SCF total energy   =    -224.311492308029


      CI coefficients  = [-0.872880860, 0.487933402]

  End of SCF
  MOs orthonormality check passed.

  Forming Favg for final canonicalization

  Orbitals are canonicalized as:
  inactive (docc + uocc) : Fock(core)
  active   (actv)        : Fock(avg)

  =========================================================================
  Eigenvalues (Eh)
  -------------------------------------------------------------------------
  Doubly occupied orbitals
      1    -20.787164  A'      2    -20.713634  A'      3    -20.713426  A'
      4     -1.745782  A'      5     -1.433574  A'      6     -1.073777  A'
      7     -0.796722  A'      8     -0.774914  A'      9     -0.764883  A"
     10     -0.580023  A'     11     -0.544727  A'
  Active orbitals
     12     -0.403787  A"     13     -0.116089  A"
  Unoccupied orbitals
     14      0.272310  A'     15      0.372487  A'     16      0.747976  A"
     17      0.748276  A'     18      0.781490  A'     19      0.786529  A'
     20      0.856213  A'     21      0.877985  A"     22      0.910762  A'
     23      0.912418  A"     24      1.010276  A'     25      1.191134  A'
     26      1.766836  A'     27      1.837008  A'     28     42.981799  A'
     29     43.246953  A'     30     43.248698  A'
  =========================================================================


  MCSCF Execution Completed.


*** tstop() called on lawn-143-215-103-161.lawn.gatech.edu at Fri Apr 27 14:41:39 2012
Module time:
	user time   =       0.71 seconds =       0.01 minutes
	system time =       0.19 seconds =       0.00 minutes
	total time  = 1335552099 seconds = 22259201.65 minutes
Total time:
	user time   =       0.71 seconds =       0.01 minutes
	system time =       0.19 seconds =       0.00 minutes
	total time  = 1335552099 seconds = 22259201.65 minutes

  MRCC          MRCC
   MRCC  MRCC  MRCC
   MRCC  MRCC  MRCC      PSIMRCC Version 0.9.3.3, July 2009
   MRCC  MRCC  MRCC      Multireference Coupled Cluster, written by
     MRCCMRCCMRCC        Francesco A. Evangelista and Andrew C. Simmonett
         MRCC            Compiled on Apr 27 2012 at 13:46:20
         MRCC            id = 6a707c99fd2213714c6c78cfcd145480721f0359 
       MRCCMRCC

  ==============================================================================
  System Info:
  ------------------------------------------------------------------------------
  Nuclear Energy   = 68.712796104     SCF Energy       = -224.311492308 

  MOs and Symmetry:
  ------------------------------------------------------------------------------
  nirreps          = 2                root             = 0         
  nso              = 30               nmo              = 30        
  nael             = 12               nbel             = 12        
  nactive_ael      = 1                nactive_bel      = 1         

  Details of the Computation:
  ------------------------------------------------------------------------------

  MOs per irrep:                                                  A'  A" Total
  ------------------------------------------------------------------------------
  Total                                                           24    6    30
  Frozen Occupied                                                  3    0     3
  Doubly Occupied                                                  7    1     8
  Active                                                           0    2     2
  External                                                        14    3    17
  Frozen Virtual                                                   0    0     0

  Model space
  ------------------------------------------------------------------------------
   0  |[2222222][202]>
   1  |[2222222][2-+]>
   2  |[2222222][2+-]>
   3  |[2222222][220]>
  ==============================================================================

  Allocated work array of size 149584 (0.14 MiB)
  Allocated buffer array of size 12596984 (12.01 MiB)	Presorting SO-basis two-electron integrals.
	Sorting File: SO Ints (nn|nn) nbuckets = 1
	Transforming the one-electron integrals and constructing Fock matrices
	Starting first half-transformation.
	Sorting half-transformed integrals.
	First half integral transformation complete.
	Starting second half-transformation.
	Two-electron integral transformation complete.


  Presorting two-electron integrals from IWL buffer
    Memory available                       =      236789954 bytes
    Memory available for presorting        =      177592465 bytes (75.0%)
    Memory required for in-core presort    =         496968 bytes
    Presorting is not required
    Reading irreps 0 -> 1 (62121 non-zero integrals)

  Sorting integrals:
    Memory available                       =      236782754 bytes
    Memory available for sorting           =      118391377 bytes (50.0%)

    Pass 1:
    Setting up the matrix list: added 200 matrices blocks
    Integrals from irreps 0 -> 1 will be read in core

    Frozen-core energy                     =       -207.374880850

  Computing storage strategy:
    Input memory                           =      250000000 bytes
    Free memory                            =      236782754 bytes
    Free memory available for matrices     =      229679271 bytes ( 97%)
    Memory required by fock matrices       =          48848 bytes
    Memory required by integrals           =        5573704 bytes
    Memory required by other matrices      =       33758136 bytes
    Memory required for in-core algorithm  =       39380688 bytes
    PSIMRCC will perform a full in-core computation

  Options:
  ----------------------------------------------------------------------------
  ACTIVE               => [ 0, 2 ]     !  BENCH                => 0             
  CC_NUM_THREADS       => 1               CORR_ANSATZ          => MK            
  CORR_CCSD_T          => STANDARD        CORR_CHARGE          => 0             
  CORR_MULTP           => 1            !  CORR_REFERENCE       => GENERAL       
  CORR_WFN             => CCSD_T       !  COUPLING             => CUBIC         
  COUPLING_TERMS       => TRUE            DAMPING_PERCENTAGE   => 0             
  DEBUG                => 0               DERTYPE              => NONE          
  DIAGONALIZE_HEFF     => FALSE           DIAGONAL_CCSD_T      => TRUE          
  DIIS_MAX_VECS        => 7               DIIS_START           => 2             
  DOCC                 => [  ]            E_CONVERGENCE        => 1e-15        !
  FAVG_CCSD_T          => FALSE           FOLLOW_ROOT          => 1             
  FREEZE_CORE          => FALSE           FROZEN_DOCC          => [ 3, 0 ]     !
  FROZEN_UOCC          => [ 0, 0 ]     !  HEFF4                => TRUE          
  HEFF_PRINT           => FALSE           LOCK_SINGLET         => FALSE         
  MAT_NUM_COLUMN_PRINT => 5               MAXITER              => 100           
  MP2_CCSD_METHOD      => II              MP2_GUESS            => TRUE          
  NO_SINGLES           => FALSE           NUM_FROZEN_DOCC      => 0             
  NUM_FROZEN_UOCC      => 0               OFFDIAGONAL_CCSD_T   => TRUE          
  PERTURB_CBS          => FALSE           PERTURB_CBS_COUPLING => TRUE          
  PRINT                => 1               PROPERTIES           => [  ]          
  PT_ENERGY            => SECOND_ORDER    PUREAM               => TRUE          
  RESTRICTED_DOCC      => [ 7, 1 ]     !  R_CONVERGENCE        => 1e-10        !
  SMALL_CUTOFF         => 0               SOCC                 => [  ]          
  TIKHONOW_MAX         => 5               TIKHONOW_OMEGA       => 0             
  TIKHONOW_TRIPLES     => FALSE           TRIPLES_ALGORITHM    => RESTRICTED    
  TRIPLES_DIIS         => FALSE           UNITS                => ANGSTROMS     
  USE_SPIN_SYM         => TRUE            USE_SPIN_SYMMETRY    => TRUE          
  WFN                  => SCF             WFN_SYM              => A'           !
  ZERO_INTERNAL_AMPS   => TRUE          


  Heff Matrix

        -223.854936900751        -0.000547519645        -0.000547519645         0.255209451497
          -0.000547519645      -224.022536143087         0.255209451497         0.000292422818
          -0.000547519645         0.255209451497      -224.022536143087         0.000292422818
           0.255209451497         0.000292422818         0.000292422818      -224.168831714986

  Left Matrix

           0.487932724676         0.000000000000         0.006854312969         0.872854326096
           0.000960007063         0.707106781187         0.707079910824        -0.006089178579
           0.000960007064        -0.707106781187         0.707079910824        -0.006089178579
          -0.872880182478        -0.000000000000         0.005386818391         0.487904877229

  Right Matrix

           0.487932724676         0.000000000000         0.006854312969         0.872854326096
           0.000960007063         0.707106781187         0.707079910824        -0.006089178579
           0.000960007063        -0.707106781187         0.707079910824        -0.006089178579
          -0.872880182478        -0.000000000001         0.005386818391         0.487904877229

  Real                  Imaginary

       -224.311492308029           0.000000000000
       -224.277745594584           0.000000000000
       -223.767329771359           0.000000000000
       -223.712273227940           0.000000000000


  The eigenvalue for root 0 is -224.311492308029 (0.000000000000)

  Heff Matrix

     -223.854936900751454     -0.000547519645098     -0.000547519645098      0.255209451496871
       -0.000547519645098   -224.022536143087052      0.255209451496871      0.000292422818390
       -0.000547519645098      0.255209451496871   -224.022536143087052      0.000292422818390
        0.255209451496871      0.000292422818390      0.000292422818390   -224.168831714985913

  Most important determinants in the wave function

  determinant  eigenvector   eigenvector^2

            3   -0.872880     0.761920  |[2222222][220]>
            0    0.487933     0.238078  |[2222222][202]>
            2    0.000960     0.000001  |[2222222][2+-]>
            1    0.000960     0.000001  |[2222222][2-+]>

  ==============================================================================
  	Multireference Coupled Cluster
		Using the DPD Library
  ==============================================================================

  ------------------------------------------------------------------------------
  @CC Cycle      Energy          Delta E    ||DeltaT1|| ||DeltaT2|| Timing  DIIS
  @CC           (Hartree)       (Hartree)                           (Sec)
  ------------------------------------------------------------------------------
  @CC   0   -224.311492308029   0.0000e+00   0.000e+00   0.000e+00       0
  Tikhonow regularization turned on.  Omega = 0.000e+00   S
  @CC   1   -224.645417810994  -3.3393e-01   7.754e-02   2.922e-01       1
  Tikhonow regularization turned on.  Omega = 0.000e+00   S
  @CC   2   -224.618065615886   2.7352e-02   5.324e-02   8.621e-02       1
  Tikhonow regularization turned on.  Omega = 0.000e+00   S
  @CC   3   -224.641105801535  -2.3040e-02   2.279e-02   3.928e-02       1
  Tikhonow regularization turned on.  Omega = 0.000e+00   S
  @CC   4   -224.638842246641   2.2636e-03   1.605e-02   1.937e-02       2
  Tikhonow regularization turned on.  Omega = 0.000e+00   S
  @CC   5   -224.643132533854  -4.2903e-03   7.302e-03   1.100e-02       2   S
  @CC   6   -224.642798644504   3.3389e-04   5.447e-03   5.612e-03       3   S/E
  @CC   7   -224.644258129162  -1.4595e-03   2.438e-03   3.524e-03       3   S
  @CC   8   -224.644274358365  -1.6229e-05   3.827e-04   6.656e-04       3   S
  @CC   9   -224.644257062231   1.7296e-05   3.081e-04   2.378e-04       4   S
  @CC  10   -224.644268801677  -1.1739e-05   1.295e-04   2.043e-04       4   S
  @CC  11   -224.644265461816   3.3399e-06   1.185e-04   9.406e-05       5   S
  @CC  12   -224.644270013117  -4.5513e-06   6.595e-05   8.082e-05       5   S
  @CC  13   -224.644269755217   2.5790e-07   5.101e-05   4.526e-05       5   S/E
  @CC  14   -224.644274850230  -5.0950e-06   3.192e-05   3.598e-05       6   S
  @CC  15   -224.644273979846   8.7038e-07   2.906e-06   6.278e-06       6   S
  @CC  16   -224.644274319159  -3.3931e-07   1.892e-06   3.428e-06       7   S
  @CC  17   -224.644273970608   3.4855e-07   9.274e-07   2.022e-06       7   S
  @CC  18   -224.644274068354  -9.7746e-08   7.264e-07   1.404e-06       7   S
  @CC  19   -224.644273963902   1.0445e-07   3.939e-07   1.038e-06       8   S
  @CC  20   -224.644273988134  -2.4232e-08   2.849e-07   7.752e-07       8   S/E
  @CC  21   -224.644273944428   4.3706e-08   1.789e-07   5.989e-07       8   S
  @CC  22   -224.644273948212  -3.7840e-09   6.435e-08   1.168e-07       9   S
  @CC  23   -224.644273945980   2.2325e-09   3.791e-08   6.360e-08       9   S
  @CC  24   -224.644273947525  -1.5456e-09   1.850e-08   3.343e-08      10   S
  @CC  25   -224.644273946881   6.4460e-10   1.273e-08   2.133e-08      10   S
  @CC  26   -224.644273947378  -4.9678e-10   6.173e-09   1.279e-08      10   S
  @CC  27   -224.644273947201   1.7701e-10   4.517e-09   8.690e-09      11   S/E
  @CC  28   -224.644273947436  -2.3533e-10   2.178e-09   5.776e-09      11   S
  @CC  29   -224.644273947391   4.5162e-11   4.029e-10   1.504e-09      11   S
  @CC  30   -224.644273947403  -1.1767e-11   3.037e-10   6.740e-10      12   S
  @CC  31   -224.644273947397   5.5138e-12   1.725e-10   4.778e-10      12   S
  @CC  32   -224.644273947399  -1.8758e-12   7.236e-11   3.353e-10      13   S
  @CC  33   -224.644273947398   1.1369e-12   6.874e-11   2.658e-10      13   S
  @CC  34   -224.644273947398  -3.6948e-13   2.709e-11   1.973e-10      13   S/E
  @CC  35   -224.644273947399  -1.2506e-12   2.480e-11   1.534e-10      14   S
  @CC  36   -224.644273947398   1.1369e-12   1.651e-11   3.924e-11      14   S
  @CC  37   -224.644273947399  -3.1264e-13   1.829e-11   3.485e-11      14   S
  @CC  38   -224.644273947399  -5.6843e-14   1.832e-11   3.769e-11      15   S
  @CC  39   -224.644273947398   1.1369e-13   1.911e-11   4.126e-11      15   S
  @CC  40   -224.644273947398   0.0000e+00   9.570e-12   1.920e-11      16
  ------------------------------------------------------------------------------

        Mk-MRCCSD total energy      =    -224.644273947398


  Heff Matrix

     -224.287269539093103     -0.000376902286125     -0.000376902286125      0.121788531530275
       -0.000435376526143   -224.476355892362534      0.115079250641637      0.000016278813294
       -0.000435376526143      0.115079250641637   -224.476355892362534      0.000016278813294
        0.139974558389503     -0.000003108351691     -0.000003108351691   -224.596522839359835

  Most important determinants in the wave function

  determinant  eigenvector   eigenvector^2

            3    0.946443     0.895754  |[2222222][220]>
            0   -0.322871     0.104246  |[2222222][202]>
            2   -0.000551     0.000000  |[2222222][2+-]>
            1   -0.000551     0.000000  |[2222222][2-+]>

  Timing for singles and doubles:            15.659016 s

  Computing (T) correction using the restricted loop algorithm.


  Mk-MRCCSD(T) diagonal contributions to the effective Hamiltonian:

   Ref         E[4]              E_T[4]            E_ST[4]           E_DT[4]
  ------------------------------------------------------------------------------
    0     -0.017663884529   -0.020561632024    0.002312476500    0.000585270995
    1     -0.018029270114   -0.021284492401    0.003361874699   -0.000106652413
    2     -0.018029270113   -0.021284492400    0.003361874699   -0.000106652413
    3     -0.017022942333   -0.020936449482    0.004008177594   -0.000094670445
   Tot    -0.017098558315   -0.020892230401    0.003808126130   -0.000014454044
  ------------------------------------------------------------------------------

  Mk-MRCCSD(T) off-diagonal contributions to the effective Hamiltonian:

    0.000000000000    0.000049281243    0.000049281243    0.006267704547
    0.000149507036    0.000000000000   -0.000445291323   -0.000020095845
    0.000149507036   -0.000445291323    0.000000000000   -0.000020095845
   -0.011297282256    0.000115987197    0.000115987197    0.000000000000

  Total     diagonal (T) correction:   -0.017098558315
  Total off-diagonal (T) correction:    0.001231725323
  Total              (T) correction:   -0.015866832992

  Hamiltonian Matrix

     -224.304933423621947     -0.000327621042793     -0.000327621042793      0.128056236076960
       -0.000285869490604   -224.494385162476675      0.114633959318318     -0.000003817032156
       -0.000285869490604      0.114633959318318   -224.494385162475936     -0.000003817032156
        0.128677276133760      0.000112878845593      0.000112878845584   -224.613545781692807

  Computing the expectation value of Heff

      * Mk-MRCCSD(T) total energy   =       -224.660140780390

  Timing for triples:                         8.515542 s

  PSIMRCC job completed.
  Wall Time =            24.774786 s
  GEMM Time =             4.050359 s

  ==============================================================================
  Memory Usage Report

  Maximum memory used:     56.9 Mb 
  Number of objects still in memory: 0       Current bytes used: 0             
  ==============================================================================

*** PSI4 exiting successfully. Buy a developer a beer!
