    -----------------------------------------------------------------------
          PSI4: An Open-Source Ab Initio Electronic Structure Package
                              PSI 4.0.0-beta1 Driver

               Git: Rev 8268e5ba0276eef671d5bc4a44cf66fa46407463

    J. M. Turney, A. C. Simmonett, R. M. Parrish, E. G. Hohenstein,
    F. A. Evangelista, J. T. Fermann, B. J. Mintz, L. A. Burns, J. J. Wilke,
    M. L. Abrams, N. J. Russ, M. L. Leininger, C. L. Janssen, E. T. Seidl,
    W. D. Allen, H. F. Schaefer, R. A. King, E. F. Valeev, C. D. Sherrill,
    and T. D. Crawford, WIREs Comput. Mol. Sci., (2011) (doi: 10.1002/wcms.93)

                         Additional Contributions by
    A. E. DePrince, M. Saitow, U. Bozkaya, A. Yu. Sokolov
    -----------------------------------------------------------------------


    Using LocalCommunicator (Number of processes = 1)

    Memory level set to 256.000 MB

  ==> Input File <==

--------------------------------------------------------------------------
#! SCF STO-3G geometry optimzation, with Z-matrix input, by finite-differences

memory 250 mb

# Same test case as scf5
nucenergy = 8.9064890670                            #TEST
refenergy = -74.965901192                           #TEST

molecule h2o {
     O
     H 1 1.0
     H 1 1.0 2 104.5
}

set globals {
  diis false
  basis sto-3g
  e_convergence 10
  d_convergence 10
  points 3
}

thisenergy = optimize('scf', dertype = 0)

compare_values(nucenergy, h2o.nuclear_repulsion_energy(), 3, "Nuclear repulsion energy")    #TEST
compare_values(refenergy, thisenergy, 3, "Reference energy")                                #TEST
--------------------------------------------------------------------------

  Memory set to 250.000 MiB by Python script.

-------------------------------------------------------------

  Using finite-differences of energies to determine gradients (fd_geoms_1_0).
	Generating geometries for use with 3-point formula.
	Displacement size will be 5.00e-03.
	Number of atoms is 3.
	Number of symmetric SALC's is 2.
	Number of displacements (including reference) is 5.

-------------------------------------------------------------

  //>>>>>>>>>>>>>>>>>>>>>>>>>>>>>>>>>>>//
  //    Loading displacement 1 of 5    //
  //<<<<<<<<<<<<<<<<<<<<<<<<<<<<<<<<<<<//

*** tstart() called on lawn-143-215-103-161.lawn.gatech.edu
*** at Fri Apr 27 13:58:05 2012

	There are an even number of electrons - assuming singlet.
	Specify the multiplicity with the MULTP option in the
	input if this is incorrect


         ---------------------------------------------------------
                                   SCF
            by Justin Turney, Rob Parrish, and Andy Simmonett
                              RHF Reference
                        1 Threads,    250 MiB Core
         ---------------------------------------------------------

  ==> Geometry <==

    Molecular point group: c2v

    Geometry (in Angstrom), charge = 0, multiplicity = 1:

       Center              X                  Y                   Z       
    ------------   -----------------  -----------------  -----------------
           O          0.000000000000     0.000000000000    -0.068737541050
           H          0.000000000000    -0.790689573744     0.545457329036
           H          0.000000000000     0.790689573744     0.545457329036

  Running in c2v symmetry.

  Nuclear repulsion =    8.791216689717068

  Charge       = 0
  Multiplicity = 1
  Electrons    = 10
  Nalpha       = 5
  Nbeta        = 5

  ==> Algorithm <==

  SCF Algorithm Type is PK.
  DIIS disabled.
  MOM disabled.
  Fractional occupation disabled.
  Guess Type is CORE.
  Energy threshold   = 1.00e-10
  Density threshold  = 1.00e-10
  Integral threshold = 0.00e+00

  ==> Primary Basis <==

  Basis Set: STO-3G
    Number of shells: 5
    Number of basis function: 7
    Number of Cartesian functions: 7
    Spherical Harmonics?: true
    Max angular momentum: 1

  ==> Pre-Iterations <==

  Minimum eigenvalue in the overlap matrix is 3.7105727976E-01.
  Using Symmetric Orthogonalization.
  SCF Guess: Core (One-Electron) Hamiltonian.

  Initial RHF energy:   -54.63765038333518

   -------------------------------------------------------
    Irrep   Nso     Nmo     Nalpha   Nbeta   Ndocc  Nsocc
   -------------------------------------------------------
     A1         4       4       3       3       3       0
     A2         0       0       0       0       0       0
     B1         1       1       1       1       1       0
     B2         2       2       1       1       1       0
   -------------------------------------------------------
    Total       7       7       5       5       5       0
   -------------------------------------------------------

  ==> Integral Setup <==

 MINTS: Wrapper to libmints.
   by Justin Turney

   Calculation information:
      Number of atoms:                   3
      Number of AO shells:               5
      Number of SO shells:               4
      Number of primitives:             15
      Number of atomic orbitals:         7
      Number of basis functions:         7

      Number of irreps:                  4
      Number of functions per irrep: [   4    0    1    2 ]

      Overlap, kinetic, potential, dipole, and quadrupole integrals
        stored in file 35.

      Computing two-electron integrals...done
      Computed 138 non-zero two-electron integrals.
        Stored in file 33.

  ==> Iterations <==

                        Total Energy        Delta E     Density RMS

   @RHF iter   1:   -73.25324854505996   -1.86156e+01   0.00000e+00 
   @RHF iter   2:   -74.93065159044113   -1.67740e+00   3.98388e-01 
   @RHF iter   3:   -74.96313832496588   -3.24867e-02   5.65433e-02 
   @RHF iter   4:   -74.96447363036015   -1.33531e-03   9.75994e-03 
   @RHF iter   5:   -74.96462988291921   -1.56253e-04   3.85886e-03 
   @RHF iter   6:   -74.96465811889408   -2.82360e-05   1.54586e-03 
   @RHF iter   7:   -74.96466363158200   -5.51269e-06   6.74215e-04 
   @RHF iter   8:   -74.96466472926176   -1.09768e-06   2.96429e-04 
   @RHF iter   9:   -74.96466494902324   -2.19761e-07   1.31682e-04 
   @RHF iter  10:   -74.96466499309048   -4.40672e-08   5.87107e-05 
   @RHF iter  11:   -74.96466500193105   -8.84057e-09   2.62348e-05 
   @RHF iter  12:   -74.96466500370482   -1.77377e-09   1.17360e-05 
   @RHF iter  13:   -74.96466500406078   -3.55953e-10   5.25324e-06 
   @RHF iter  14:   -74.96466500413214   -7.13669e-11   2.35221e-06 
   @RHF iter  15:   -74.96466500414644   -1.42961e-11   1.05343e-06 
   @RHF iter  16:   -74.96466500414931   -2.87059e-12   4.71818e-07 
   @RHF iter  17:   -74.96466500414994   -6.25278e-13   2.11333e-07 
   @RHF iter  18:   -74.96466500415002   -8.52651e-14   9.46616e-08 
   @RHF iter  19:   -74.96466500415005   -2.84217e-14   4.24021e-08 
   @RHF iter  20:   -74.96466500415005    0.00000e+00   1.89934e-08 
   @RHF iter  21:   -74.96466500415008   -2.84217e-14   8.50790e-09 
   @RHF iter  22:   -74.96466500415011   -2.84217e-14   3.81103e-09 
   @RHF iter  23:   -74.96466500415008    2.84217e-14   1.70712e-09 
   @RHF iter  24:   -74.96466500415005    2.84217e-14   7.64687e-10 
   @RHF iter  25:   -74.96466500415005    0.00000e+00   3.42535e-10 
   @RHF iter  26:   -74.96466500415005    0.00000e+00   1.53436e-10 

  ==> Post-Iterations <==

	Orbital Energies (a.u.)
	-----------------------

	Doubly Occupied:                                                      

	   1A1   -20.247687     2A1    -1.247426     1B2    -0.594971  
	   3A1    -0.448166     1B1    -0.389044  

	Virtual:                                                              

	   4A1     0.563348     2B2     0.691150  

	Final Occupation by Irrep:
	         A1    A2    B1    B2 
	DOCC [     3,    0,    1,    1 ]

  Energy converged.

  @RHF Final Energy:   -74.96466500415005

   => Energetics <=

    Nuclear Repulsion Energy =          8.7912166897170678
    One-Electron Energy =            -121.6571754196964434
    Two-Electron Energy =              37.9012937258293121
    DFT Functional Energy =             0.0000000000000000
    Empirical Dispersion Energy =       0.0000000000000000
    Total Energy =                    -74.9646650041500777

  ==> Properties <==

  Nuclear Dipole Moment: (a.u.)
     X:     0.0000      Y:    -0.0000      Z:     1.0224

  Electronic Dipole Moment: (a.u.)
     X:     0.0000      Y:     0.0000      Z:    -0.3660

  Dipole Moment: (a.u.)
     X:     0.0000      Y:    -0.0000      Z:     0.6564     Total:     0.6564

  Dipole Moment: (Debye)
     X:     0.0000      Y:    -0.0000      Z:     1.6684     Total:     1.6684


  Saving occupied orbitals to File 180.

*** tstop() called on lawn-143-215-103-161.lawn.gatech.edu at Fri Apr 27 13:58:05 2012
Module time:
	user time   =       0.03 seconds =       0.00 minutes
	system time =       0.01 seconds =       0.00 minutes
	total time  =          0 seconds =       0.00 minutes
Total time:
	user time   =       0.03 seconds =       0.00 minutes
	system time =       0.01 seconds =       0.00 minutes
	total time  =          0 seconds =       0.00 minutes

  //>>>>>>>>>>>>>>>>>>>>>>>>>>>>>>>>>>>//
  //    Loading displacement 2 of 5    //
  //<<<<<<<<<<<<<<<<<<<<<<<<<<<<<<<<<<<//

*** tstart() called on lawn-143-215-103-161.lawn.gatech.edu
*** at Fri Apr 27 13:58:05 2012

	There are an even number of electrons - assuming singlet.
	Specify the multiplicity with the MULTP option in the
	input if this is incorrect


         ---------------------------------------------------------
                                   SCF
            by Justin Turney, Rob Parrish, and Andy Simmonett
                              RHF Reference
                        1 Threads,    250 MiB Core
         ---------------------------------------------------------

  ==> Geometry <==

    Molecular point group: c2v

    Geometry (in Angstrom), charge = 0, multiplicity = 1:

       Center              X                  Y                   Z       
    ------------   -----------------  -----------------  -----------------
           O          0.000000000000     0.000000000000    -0.068294897570
           H          0.000000000000    -0.790689573744     0.541944792413
           H          0.000000000000     0.790689573744     0.541944792413

  Running in c2v symmetry.

  Nuclear repulsion =    8.811718490323456

  Charge       = 0
  Multiplicity = 1
  Electrons    = 10
  Nalpha       = 5
  Nbeta        = 5

  ==> Algorithm <==

  SCF Algorithm Type is PK.
  DIIS disabled.
  MOM disabled.
  Fractional occupation disabled.
  Guess Type is CORE.
  Energy threshold   = 1.00e-10
  Density threshold  = 1.00e-10
  Integral threshold = 0.00e+00

  ==> Primary Basis <==

  Basis Set: STO-3G
    Number of shells: 5
    Number of basis function: 7
    Number of Cartesian functions: 7
    Spherical Harmonics?: true
    Max angular momentum: 1

  ==> Pre-Iterations <==

  Minimum eigenvalue in the overlap matrix is 3.6951300188E-01.
  Using Symmetric Orthogonalization.
  SCF Guess: Core (One-Electron) Hamiltonian.

  Initial RHF energy:   -54.63086750183680

   -------------------------------------------------------
    Irrep   Nso     Nmo     Nalpha   Nbeta   Ndocc  Nsocc
   -------------------------------------------------------
     A1         4       4       3       3       3       0
     A2         0       0       0       0       0       0
     B1         1       1       1       1       1       0
     B2         2       2       1       1       1       0
   -------------------------------------------------------
    Total       7       7       5       5       5       0
   -------------------------------------------------------

  ==> Integral Setup <==

 MINTS: Wrapper to libmints.
   by Justin Turney

   Calculation information:
      Number of atoms:                   3
      Number of AO shells:               5
      Number of SO shells:               4
      Number of primitives:             15
      Number of atomic orbitals:         7
      Number of basis functions:         7

      Number of irreps:                  4
      Number of functions per irrep: [   4    0    1    2 ]

      Overlap, kinetic, potential, dipole, and quadrupole integrals
        stored in file 35.

      Computing two-electron integrals...done
      Computed 138 non-zero two-electron integrals.
        Stored in file 33.

  ==> Iterations <==

                        Total Energy        Delta E     Density RMS

   @RHF iter   1:   -73.25277200746829   -1.86219e+01   0.00000e+00 
   @RHF iter   2:   -74.93231810301533   -1.67955e+00   3.98372e-01 
   @RHF iter   3:   -74.96318819290498   -3.08701e-02   5.51081e-02 
   @RHF iter   4:   -74.96446551377433   -1.27732e-03   9.61454e-03 
   @RHF iter   5:   -74.96461772271091   -1.52209e-04   3.81256e-03 
   @RHF iter   6:   -74.96464524533910   -2.75226e-05   1.53159e-03 
   @RHF iter   7:   -74.96465060505190   -5.35971e-06   6.66834e-04 
   @RHF iter   8:   -74.96465166905105   -1.06400e-06   2.92835e-04 
   @RHF iter   9:   -74.96465188141244   -2.12361e-07   1.29887e-04 
   @RHF iter  10:   -74.96465192386403   -4.24516e-08   5.78226e-05 
   @RHF iter  11:   -74.96465193235412   -8.49009e-09   2.57981e-05 
   @RHF iter  12:   -74.96465193405233   -1.69821e-09   1.15228e-05 
   @RHF iter  13:   -74.96465193439194   -3.39611e-10   5.14982e-06 
   @RHF iter  14:   -74.96465193445994   -6.79989e-11   2.30234e-06 
   @RHF iter  15:   -74.96465193447352   -1.35856e-11   1.02949e-06 
   @RHF iter  16:   -74.96465193447627   -2.74269e-12   4.60384e-07 
   @RHF iter  17:   -74.96465193447676   -4.97380e-13   2.05893e-07 
   @RHF iter  18:   -74.96465193447688   -1.13687e-13   9.20818e-08 
   @RHF iter  19:   -74.96465193447695   -7.10543e-14   4.11826e-08 
   @RHF iter  20:   -74.96465193447692    2.84217e-14   1.84186e-08 
   @RHF iter  21:   -74.96465193447692    0.00000e+00   8.23765e-09 
   @RHF iter  22:   -74.96465193447693   -1.42109e-14   3.68426e-09 
   @RHF iter  23:   -74.96465193447693    0.00000e+00   1.64778e-09 
   @RHF iter  24:   -74.96465193447692    1.42109e-14   7.36965e-10 
   @RHF iter  25:   -74.96465193447686    5.68434e-14   3.29606e-10 
   @RHF iter  26:   -74.96465193447692   -5.68434e-14   1.47415e-10 

  ==> Post-Iterations <==

	Orbital Energies (a.u.)
	-----------------------

	Doubly Occupied:                                                      

	   1A1   -20.246852     2A1    -1.248122     1B2    -0.596731  
	   3A1    -0.447601     1B1    -0.388868  

	Virtual:                                                              

	   4A1     0.564953     2B2     0.694868  

	Final Occupation by Irrep:
	         A1    A2    B1    B2 
	DOCC [     3,    0,    1,    1 ]

  Energy converged.

  @RHF Final Energy:   -74.96465193447692

   => Energetics <=

    Nuclear Repulsion Energy =          8.8117184903234556
    One-Electron Energy =            -121.6963922158197704
    Two-Electron Energy =              37.9200217910194084
    DFT Functional Energy =             0.0000000000000000
    Empirical Dispersion Energy =       0.0000000000000000
    Total Energy =                    -74.9646519344769047

  ==> Properties <==

  Nuclear Dipole Moment: (a.u.)
     X:     0.0000      Y:     0.0000      Z:     1.0158

  Electronic Dipole Moment: (a.u.)
     X:     0.0000      Y:     0.0000      Z:    -0.3589

  Dipole Moment: (a.u.)
     X:     0.0000      Y:     0.0000      Z:     0.6569     Total:     0.6569

  Dipole Moment: (Debye)
     X:     0.0000      Y:     0.0000      Z:     1.6696     Total:     1.6696


  Saving occupied orbitals to File 180.

*** tstop() called on lawn-143-215-103-161.lawn.gatech.edu at Fri Apr 27 13:58:05 2012
Module time:
	user time   =       0.03 seconds =       0.00 minutes
	system time =       0.00 seconds =       0.00 minutes
	total time  =          0 seconds =       0.00 minutes
Total time:
	user time   =       0.06 seconds =       0.00 minutes
	system time =       0.01 seconds =       0.00 minutes
	total time  =          0 seconds =       0.00 minutes

  //>>>>>>>>>>>>>>>>>>>>>>>>>>>>>>>>>>>//
  //    Loading displacement 3 of 5    //
  //<<<<<<<<<<<<<<<<<<<<<<<<<<<<<<<<<<<//

*** tstart() called on lawn-143-215-103-161.lawn.gatech.edu
*** at Fri Apr 27 13:58:05 2012

	There are an even number of electrons - assuming singlet.
	Specify the multiplicity with the MULTP option in the
	input if this is incorrect


         ---------------------------------------------------------
                                   SCF
            by Justin Turney, Rob Parrish, and Andy Simmonett
                              RHF Reference
                        1 Threads,    250 MiB Core
         ---------------------------------------------------------

  ==> Geometry <==

    Molecular point group: c2v

    Geometry (in Angstrom), charge = 0, multiplicity = 1:

       Center              X                  Y                   Z       
    ------------   -----------------  -----------------  -----------------
           O          0.000000000000     0.000000000000    -0.068516219310
           H          0.000000000000    -0.792553220368     0.543701060724
           H          0.000000000000     0.792553220368     0.543701060724

  Running in c2v symmetry.

  Nuclear repulsion =    8.788215095736607

  Charge       = 0
  Multiplicity = 1
  Electrons    = 10
  Nalpha       = 5
  Nbeta        = 5

  ==> Algorithm <==

  SCF Algorithm Type is PK.
  DIIS disabled.
  MOM disabled.
  Fractional occupation disabled.
  Guess Type is CORE.
  Energy threshold   = 1.00e-10
  Density threshold  = 1.00e-10
  Integral threshold = 0.00e+00

  ==> Primary Basis <==

  Basis Set: STO-3G
    Number of shells: 5
    Number of basis function: 7
    Number of Cartesian functions: 7
    Spherical Harmonics?: true
    Max angular momentum: 1

  ==> Pre-Iterations <==

  Minimum eigenvalue in the overlap matrix is 3.7125954317E-01.
  Using Symmetric Orthogonalization.
  SCF Guess: Core (One-Electron) Hamiltonian.

  Initial RHF energy:   -54.63936676894848

   -------------------------------------------------------
    Irrep   Nso     Nmo     Nalpha   Nbeta   Ndocc  Nsocc
   -------------------------------------------------------
     A1         4       4       3       3       3       0
     A2         0       0       0       0       0       0
     B1         1       1       1       1       1       0
     B2         2       2       1       1       1       0
   -------------------------------------------------------
    Total       7       7       5       5       5       0
   -------------------------------------------------------

  ==> Integral Setup <==

 MINTS: Wrapper to libmints.
   by Justin Turney

   Calculation information:
      Number of atoms:                   3
      Number of AO shells:               5
      Number of SO shells:               4
      Number of primitives:             15
      Number of atomic orbitals:         7
      Number of basis functions:         7

      Number of irreps:                  4
      Number of functions per irrep: [   4    0    1    2 ]

      Overlap, kinetic, potential, dipole, and quadrupole integrals
        stored in file 35.

      Computing two-electron integrals...done
      Computed 138 non-zero two-electron integrals.
        Stored in file 33.

  ==> Iterations <==

                        Total Energy        Delta E     Density RMS

   @RHF iter   1:   -73.25385041701873   -1.86145e+01   0.00000e+00 
   @RHF iter   2:   -74.93083762166522   -1.67699e+00   3.98209e-01 
   @RHF iter   3:   -74.96299986463315   -3.21622e-02   5.62377e-02 
   @RHF iter   4:   -74.96432832551996   -1.32846e-03   9.74728e-03 
   @RHF iter   5:   -74.96448510632617   -1.56781e-04   3.86442e-03 
   @RHF iter   6:   -74.96451351965455   -2.84133e-05   1.55140e-03 
   @RHF iter   7:   -74.96451907446746   -5.55481e-06   6.77128e-04 
   @RHF iter   8:   -74.96452018162876   -1.10716e-06   2.97913e-04 
   @RHF iter   9:   -74.96452040348679   -2.21858e-07   1.32410e-04 
   @RHF iter  10:   -74.96452044801316   -4.45264e-08   5.90636e-05 
   @RHF iter  11:   -74.96452045695349   -8.94033e-09   2.64045e-05 
   @RHF iter  12:   -74.96452045874885   -1.79536e-09   1.18171e-05 
   @RHF iter  13:   -74.96452045910934   -3.60487e-10   5.29186e-06 
   @RHF iter  14:   -74.96452045918177   -7.24327e-11   2.37053e-06 
   @RHF iter  15:   -74.96452045919632   -1.45519e-11   1.06209e-06 
   @RHF iter  16:   -74.96452045919921   -2.88480e-12   4.75903e-07 
   @RHF iter  17:   -74.96452045919978   -5.68434e-13   2.13254e-07 
   @RHF iter  18:   -74.96452045919993   -1.56319e-13   9.55632e-08 
   @RHF iter  19:   -74.96452045919997   -4.26326e-14   4.28243e-08 
   @RHF iter  20:   -74.96452045919996    1.42109e-14   1.91908e-08 
   @RHF iter  21:   -74.96452045919993    2.84217e-14   8.60000e-09 
   @RHF iter  22:   -74.96452045919993    0.00000e+00   3.85394e-09 
   @RHF iter  23:   -74.96452045919995   -1.42109e-14   1.72708e-09 
   @RHF iter  24:   -74.96452045920000   -5.68434e-14   7.73961e-10 
   @RHF iter  25:   -74.96452045919996    4.26326e-14   3.46839e-10 
   @RHF iter  26:   -74.96452045919997   -1.42109e-14   1.55429e-10 

  ==> Post-Iterations <==

	Orbital Energies (a.u.)
	-----------------------

	Doubly Occupied:                                                      

	   1A1   -20.247291     2A1    -1.246966     1B2    -0.595310  
	   3A1    -0.447394     1B1    -0.388796  

	Virtual:                                                              

	   4A1     0.562516     2B2     0.691733  

	Final Occupation by Irrep:
	         A1    A2    B1    B2 
	DOCC [     3,    0,    1,    1 ]

  Energy converged.

  @RHF Final Energy:   -74.96452045919997

   => Energetics <=

    Nuclear Repulsion Energy =          8.7882150957366072
    One-Electron Energy =            -121.6539549621104328
    Two-Electron Energy =              37.9012194071738548
    DFT Functional Energy =             0.0000000000000000
    Empirical Dispersion Energy =       0.0000000000000000
    Total Energy =                    -74.9645204591999743

  ==> Properties <==

  Nuclear Dipole Moment: (a.u.)
     X:     0.0000      Y:     0.0000      Z:     1.0191

  Electronic Dipole Moment: (a.u.)
     X:     0.0000      Y:     0.0000      Z:    -0.3635

  Dipole Moment: (a.u.)
     X:     0.0000      Y:     0.0000      Z:     0.6556     Total:     0.6556

  Dipole Moment: (Debye)
     X:     0.0000      Y:     0.0000      Z:     1.6662     Total:     1.6662


  Saving occupied orbitals to File 180.

*** tstop() called on lawn-143-215-103-161.lawn.gatech.edu at Fri Apr 27 13:58:05 2012
Module time:
	user time   =       0.04 seconds =       0.00 minutes
	system time =       0.01 seconds =       0.00 minutes
	total time  =          0 seconds =       0.00 minutes
Total time:
	user time   =       0.10 seconds =       0.00 minutes
	system time =       0.02 seconds =       0.00 minutes
	total time  =          0 seconds =       0.00 minutes

  //>>>>>>>>>>>>>>>>>>>>>>>>>>>>>>>>>>>//
  //    Loading displacement 4 of 5    //
  //<<<<<<<<<<<<<<<<<<<<<<<<<<<<<<<<<<<//

*** tstart() called on lawn-143-215-103-161.lawn.gatech.edu
*** at Fri Apr 27 13:58:05 2012

	There are an even number of electrons - assuming singlet.
	Specify the multiplicity with the MULTP option in the
	input if this is incorrect


         ---------------------------------------------------------
                                   SCF
            by Justin Turney, Rob Parrish, and Andy Simmonett
                              RHF Reference
                        1 Threads,    250 MiB Core
         ---------------------------------------------------------

  ==> Geometry <==

    Molecular point group: c2v

    Geometry (in Angstrom), charge = 0, multiplicity = 1:

       Center              X                  Y                   Z       
    ------------   -----------------  -----------------  -----------------
           O          0.000000000000     0.000000000000    -0.068516219310
           H          0.000000000000    -0.788825927119     0.543701060724
           H          0.000000000000     0.788825927119     0.543701060724

  Running in c2v symmetry.

  Nuclear repulsion =    8.814745429922915

  Charge       = 0
  Multiplicity = 1
  Electrons    = 10
  Nalpha       = 5
  Nbeta        = 5

  ==> Algorithm <==

  SCF Algorithm Type is PK.
  DIIS disabled.
  MOM disabled.
  Fractional occupation disabled.
  Guess Type is CORE.
  Energy threshold   = 1.00e-10
  Density threshold  = 1.00e-10
  Integral threshold = 0.00e+00

  ==> Primary Basis <==

  Basis Set: STO-3G
    Number of shells: 5
    Number of basis function: 7
    Number of Cartesian functions: 7
    Spherical Harmonics?: true
    Max angular momentum: 1

  ==> Pre-Iterations <==

  Minimum eigenvalue in the overlap matrix is 3.6930928934E-01.
  Using Symmetric Orthogonalization.
  SCF Guess: Core (One-Electron) Hamiltonian.

  Initial RHF energy:   -54.62913728390147

   -------------------------------------------------------
    Irrep   Nso     Nmo     Nalpha   Nbeta   Ndocc  Nsocc
   -------------------------------------------------------
     A1         4       4       3       3       3       0
     A2         0       0       0       0       0       0
     B1         1       1       1       1       1       0
     B2         2       2       1       1       1       0
   -------------------------------------------------------
    Total       7       7       5       5       5       0
   -------------------------------------------------------

  ==> Integral Setup <==

 MINTS: Wrapper to libmints.
   by Justin Turney

   Calculation information:
      Number of atoms:                   3
      Number of AO shells:               5
      Number of SO shells:               4
      Number of primitives:             15
      Number of atomic orbitals:         7
      Number of basis functions:         7

      Number of irreps:                  4
      Number of functions per irrep: [   4    0    1    2 ]

      Overlap, kinetic, potential, dipole, and quadrupole integrals
        stored in file 35.

      Computing two-electron integrals...done
      Computed 138 non-zero two-electron integrals.
        Stored in file 33.

  ==> Iterations <==

                        Total Energy        Delta E     Density RMS

   @RHF iter   1:   -73.25216800632492   -1.86230e+01   0.00000e+00 
   @RHF iter   2:   -74.93213547442403   -1.67997e+00   3.98553e-01 
   @RHF iter   3:   -74.96332378145203   -3.11883e-02   5.54136e-02 
   @RHF iter   4:   -74.96460773181229   -1.28395e-03   9.62701e-03 
   @RHF iter   5:   -74.96475944715783   -1.51715e-04   3.80729e-03 
   @RHF iter   6:   -74.96478680234003   -2.73552e-05   1.52625e-03 
   @RHF iter   7:   -74.96479212219330   -5.31985e-06   6.64014e-04 
   @RHF iter   8:   -74.96479317722003   -1.05503e-06   2.91397e-04 
   @RHF iter   9:   -74.96479338759923   -2.10379e-07   1.29181e-04 
   @RHF iter  10:   -74.96479342961746   -4.20182e-08   5.74800e-05 
   @RHF iter  11:   -74.96479343801346   -8.39600e-09   2.56334e-05 
   @RHF iter  12:   -74.96479343969136   -1.67790e-09   1.14441e-05 
   @RHF iter  13:   -74.96479344002668   -3.35319e-10   5.11238e-06 
   @RHF iter  14:   -74.96479344009376   -6.70752e-11   2.28459e-06 
   @RHF iter  15:   -74.96479344010712   -1.33582e-11   1.02111e-06 
   @RHF iter  16:   -74.96479344010982   -2.70006e-12   4.56435e-07 
   @RHF iter  17:   -74.96479344011033   -5.11591e-13   2.04037e-07 
   @RHF iter  18:   -74.96479344011050   -1.70530e-13   9.12122e-08 
   @RHF iter  19:   -74.96479344011047    2.84217e-14   4.07759e-08 
   @RHF iter  20:   -74.96479344011047    0.00000e+00   1.82288e-08 
   @RHF iter  21:   -74.96479344011044    2.84217e-14   8.14918e-09 
   @RHF iter  22:   -74.96479344011044    0.00000e+00   3.64310e-09 
   @RHF iter  23:   -74.96479344011047   -2.84217e-14   1.62865e-09 
   @RHF iter  24:   -74.96479344011044    2.84217e-14   7.28095e-10 
   @RHF iter  25:   -74.96479344011041    2.84217e-14   3.25498e-10 
   @RHF iter  26:   -74.96479344011044   -2.84217e-14   1.45514e-10 

  ==> Post-Iterations <==

	Orbital Energies (a.u.)
	-----------------------

	Doubly Occupied:                                                      

	   1A1   -20.247250     2A1    -1.248586     1B2    -0.596391  
	   3A1    -0.448375     1B1    -0.389118  

	Virtual:                                                              

	   4A1     0.565789     2B2     0.694282  

	Final Occupation by Irrep:
	         A1    A2    B1    B2 
	DOCC [     3,    0,    1,    1 ]

  Energy converged.

  @RHF Final Energy:   -74.96479344011044

   => Energetics <=

    Nuclear Repulsion Energy =          8.8147454299229153
    One-Electron Energy =            -121.6996374101415626
    Two-Electron Energy =              37.9200985401081923
    DFT Functional Energy =             0.0000000000000000
    Empirical Dispersion Energy =       0.0000000000000000
    Total Energy =                    -74.9647934401104408

  ==> Properties <==

  Nuclear Dipole Moment: (a.u.)
     X:     0.0000      Y:     0.0000      Z:     1.0191

  Electronic Dipole Moment: (a.u.)
     X:     0.0000      Y:     0.0000      Z:    -0.3614

  Dipole Moment: (a.u.)
     X:     0.0000      Y:     0.0000      Z:     0.6577     Total:     0.6577

  Dipole Moment: (Debye)
     X:     0.0000      Y:     0.0000      Z:     1.6717     Total:     1.6717


  Saving occupied orbitals to File 180.

*** tstop() called on lawn-143-215-103-161.lawn.gatech.edu at Fri Apr 27 13:58:05 2012
Module time:
	user time   =       0.03 seconds =       0.00 minutes
	system time =       0.01 seconds =       0.00 minutes
	total time  =          0 seconds =       0.00 minutes
Total time:
	user time   =       0.13 seconds =       0.00 minutes
	system time =       0.03 seconds =       0.00 minutes
	total time  =          0 seconds =       0.00 minutes

  //>>>>>>>>>>>>>>>>>>>>>>>>>>>>>>>>>>>//
  //    Loading displacement 5 of 5    //
  //<<<<<<<<<<<<<<<<<<<<<<<<<<<<<<<<<<<//

*** tstart() called on lawn-143-215-103-161.lawn.gatech.edu
*** at Fri Apr 27 13:58:05 2012

	There are an even number of electrons - assuming singlet.
	Specify the multiplicity with the MULTP option in the
	input if this is incorrect


         ---------------------------------------------------------
                                   SCF
            by Justin Turney, Rob Parrish, and Andy Simmonett
                              RHF Reference
                        1 Threads,    250 MiB Core
         ---------------------------------------------------------

  ==> Geometry <==

    Molecular point group: c2v

    Geometry (in Angstrom), charge = 0, multiplicity = 1:

       Center              X                  Y                   Z       
    ------------   -----------------  -----------------  -----------------
           O          0.000000000000     0.000000000000    -0.068516219310
           H          0.000000000000    -0.790689573744     0.543701060724
           H          0.000000000000     0.790689573744     0.543701060724

  Running in c2v symmetry.

  Nuclear repulsion =    8.801465529972067

  Charge       = 0
  Multiplicity = 1
  Electrons    = 10
  Nalpha       = 5
  Nbeta        = 5

  ==> Algorithm <==

  SCF Algorithm Type is PK.
  DIIS disabled.
  MOM disabled.
  Fractional occupation disabled.
  Guess Type is CORE.
  Energy threshold   = 1.00e-10
  Density threshold  = 1.00e-10
  Integral threshold = 0.00e+00

  ==> Primary Basis <==

  Basis Set: STO-3G
    Number of shells: 5
    Number of basis function: 7
    Number of Cartesian functions: 7
    Spherical Harmonics?: true
    Max angular momentum: 1

  ==> Pre-Iterations <==

  Minimum eigenvalue in the overlap matrix is 3.7028400642E-01.
  Using Symmetric Orthogonalization.
  SCF Guess: Core (One-Electron) Hamiltonian.

  Initial RHF energy:   -54.63426083487273

   -------------------------------------------------------
    Irrep   Nso     Nmo     Nalpha   Nbeta   Ndocc  Nsocc
   -------------------------------------------------------
     A1         4       4       3       3       3       0
     A2         0       0       0       0       0       0
     B1         1       1       1       1       1       0
     B2         2       2       1       1       1       0
   -------------------------------------------------------
    Total       7       7       5       5       5       0
   -------------------------------------------------------

  ==> Integral Setup <==

 MINTS: Wrapper to libmints.
   by Justin Turney

   Calculation information:
      Number of atoms:                   3
      Number of AO shells:               5
      Number of SO shells:               4
      Number of primitives:             15
      Number of atomic orbitals:         7
      Number of basis functions:         7

      Number of irreps:                  4
      Number of functions per irrep: [   4    0    1    2 ]

      Overlap, kinetic, potential, dipole, and quadrupole integrals
        stored in file 35.

      Computing two-electron integrals...done
      Computed 138 non-zero two-electron integrals.
        Stored in file 33.

  ==> Iterations <==

                        Total Energy        Delta E     Density RMS

   @RHF iter   1:   -73.25301168566619   -1.86188e+01   0.00000e+00 
   @RHF iter   2:   -74.93149650876842   -1.67848e+00   3.98379e-01 
   @RHF iter   3:   -74.96316771149124   -3.16712e-02   5.58235e-02 
   @RHF iter   4:   -74.96447365182992   -1.30594e-03   9.68664e-03 
   @RHF iter   5:   -74.96462787362439   -1.54222e-04   3.83566e-03 
   @RHF iter   6:   -74.96465575209831   -2.78785e-05   1.53875e-03 
   @RHF iter   7:   -74.96466118801395   -5.43592e-06   6.70528e-04 
   @RHF iter   8:   -74.96466226876267   -1.08075e-06   2.94632e-04 
   @RHF iter   9:   -74.96466248479848   -2.16036e-07   1.30783e-04 
   @RHF iter  10:   -74.96466252805115   -4.32527e-08   5.82654e-05 
   @RHF iter  11:   -74.96466253671484   -8.66369e-09   2.60156e-05 
   @RHF iter  12:   -74.96466253845045   -1.73561e-09   1.16289e-05 
   @RHF iter  13:   -74.96466253879808   -3.47626e-10   5.20124e-06 
   @RHF iter  14:   -74.96466253886773   -6.96474e-11   2.32712e-06 
   @RHF iter  15:   -74.96466253888167   -1.39408e-11   1.04138e-06 
   @RHF iter  16:   -74.96466253888447   -2.79954e-12   4.66057e-07 
   @RHF iter  17:   -74.96466253888509   -6.25278e-13   2.08590e-07 
   @RHF iter  18:   -74.96466253888519   -9.94760e-14   9.33600e-08 
   @RHF iter  19:   -74.96466253888522   -2.84217e-14   4.17865e-08 
   @RHF iter  20:   -74.96466253888515    7.10543e-14   1.87031e-08 
   @RHF iter  21:   -74.96466253888518   -2.84217e-14   8.37133e-09 
   @RHF iter  22:   -74.96466253888519   -1.42109e-14   3.74693e-09 
   @RHF iter  23:   -74.96466253888521   -1.42109e-14   1.67709e-09 
   @RHF iter  24:   -74.96466253888518    2.84217e-14   7.50656e-10 
   @RHF iter  25:   -74.96466253888519   -1.42109e-14   3.35988e-10 
   @RHF iter  26:   -74.96466253888519    0.00000e+00   1.50386e-10 

  ==> Post-Iterations <==

	Orbital Energies (a.u.)
	-----------------------

	Doubly Occupied:                                                      

	   1A1   -20.247270     2A1    -1.247775     1B2    -0.595851  
	   3A1    -0.447884     1B1    -0.388956  

	Virtual:                                                              

	   4A1     0.564152     2B2     0.693007  

	Final Occupation by Irrep:
	         A1    A2    B1    B2 
	DOCC [     3,    0,    1,    1 ]

  Energy converged.

  @RHF Final Energy:   -74.96466253888519

   => Energetics <=

    Nuclear Repulsion Energy =          8.8014655299720665
    One-Electron Energy =            -121.6767824861837255
    Two-Electron Energy =              37.9106544173264837
    DFT Functional Energy =             0.0000000000000000
    Empirical Dispersion Energy =       0.0000000000000000
    Total Energy =                    -74.9646625388851788

  ==> Properties <==

  Nuclear Dipole Moment: (a.u.)
     X:     0.0000      Y:     0.0000      Z:     1.0191

  Electronic Dipole Moment: (a.u.)
     X:     0.0000      Y:     0.0000      Z:    -0.3624

  Dipole Moment: (a.u.)
     X:     0.0000      Y:     0.0000      Z:     0.6566     Total:     0.6566

  Dipole Moment: (Debye)
     X:     0.0000      Y:     0.0000      Z:     1.6690     Total:     1.6690


  Saving occupied orbitals to File 180.

*** tstop() called on lawn-143-215-103-161.lawn.gatech.edu at Fri Apr 27 13:58:05 2012
Module time:
	user time   =       0.03 seconds =       0.00 minutes
	system time =       0.01 seconds =       0.00 minutes
	total time  =          0 seconds =       0.00 minutes
Total time:
	user time   =       0.16 seconds =       0.00 minutes
	system time =       0.04 seconds =       0.00 minutes
	total time  =          0 seconds =       0.00 minutes

-------------------------------------------------------------

  Computing gradient from energies (fd_1_0).
	Using 3-point formula.
	Energy without displacement:  -74.9646625389
	Check energies below for precision!
	Forces are for mass-weighted, symmetry-adapted cartesians (in au).

	 Coord      Energy(-)        Energy(+)        Force
	    0    -74.9646650042   -74.9646519345     0.0013069673
	    1    -74.9645204592   -74.9647934401    -0.0272980910

	Gradient written to file11.
	Gradient saved to wavefunction.

-------------------------------------------------------------

			----------------------------------
			 OPTKING: for geometry optimizations  
			  - R.A. King,  Bethel University   
			------------------------------------

	Internal coordinates to be generated automatically.
	Detected frag with atoms:  1 2 3
	---Fragment 1 Bond Connectivity---
	 1 : 2 3
	 2 : 1
	 3 : 1

	---Fragment 1 Geometry and Gradient---
	 O           0.0000000000        0.0000000000       -0.1294768902
	 H           0.0000000000       -1.4941867505        1.0274461029
	 H           0.0000000000        1.4941867505        1.0274461029
	             0.0000000000        0.0000000000        0.0017486367
	             0.0000000000       -0.0193780401       -0.0008743184
	             0.0000000000        0.0193780401       -0.0008743184

	Previous optimization step data not found.  Starting new optimization.

	---Fragment 1 Intrafragment Coordinates---
	 - Coordinate -           - BOHR/RAD -       - ANG/DEG -
	 R(1,2)           =         1.889726	       1.000000
	 R(1,3)           =         1.889726	       1.000000
	 B(2,1,3)         =         1.823869	     104.500000

	Current energy   :       -74.9646625389

	Generating empirical Hessian (Schlegel '84) for each fragment.
	Going to follow RFO solution 1.
	Projected energy change by RFO approximation:        -0.0021670027

	Back-transformation to cartesian coordinates...
	Successfully converged to displaced geometry.

	---Internal Coordinate Step in ANG or DEG, aJ/ANG or AJ/DEG ---
	 ----------------------------------------------------------------------
	 Coordinate             Previous        Force       Change         New 
	 ----------             --------       ------       ------       ------
	 R(1,2)          =      1.000000    -0.121824    -0.016260     0.983740
	 R(1,3)          =      1.000000    -0.121824    -0.016260     0.983740
	 B(2,1,3)        =    104.500000    -0.001805    -8.271929    96.228071
	 ----------------------------------------------------------------------

  ==> Convergence Check <==

  Measures of convergence in internal coordinates in au.
  Criteria marked as inactive (o), active & met (*), and active & unmet ( ).
  --------------------------------------------------------------------------------------------- ~
   Step     Total Energy     Delta E     MAX Force     RMS Force      MAX Disp      RMS Disp    ~
  --------------------------------------------------------------------------------------------- ~
    Convergence Criteria    1.00e-06 *    3.00e-04 *             o    1.20e-03 *             o  ~
  --------------------------------------------------------------------------------------------- ~
      1     -74.96466254   -7.50e+01      2.37e-02      1.83e-02 o    1.44e-01      8.70e-02 o  ~
  ---------------------------------------------------------------------------------------------

	Writing optimization data to binary file.
	Structure for next step:
	Cartesian Geometry (au)
	    O     0.0000000000   0.0000000000  -0.1856353157
	    H     0.0000000000  -1.3839780151   1.0555253157
	    H     0.0000000000   1.3839780151   1.0555253157
			--------------------------
			 OPTKING Finished Execution 
			--------------------------

-------------------------------------------------------------

  Using finite-differences of energies to determine gradients (fd_geoms_1_0).
	Generating geometries for use with 3-point formula.
	Displacement size will be 5.00e-03.
	Number of atoms is 3.
	Number of symmetric SALC's is 2.
	Number of displacements (including reference) is 5.

-------------------------------------------------------------

  //>>>>>>>>>>>>>>>>>>>>>>>>>>>>>>>>>>>//
  //    Loading displacement 1 of 5    //
  //<<<<<<<<<<<<<<<<<<<<<<<<<<<<<<<<<<<//

*** tstart() called on lawn-143-215-103-161.lawn.gatech.edu
*** at Fri Apr 27 13:58:05 2012

	There are an even number of electrons - assuming singlet.
	Specify the multiplicity with the MULTP option in the
	input if this is incorrect


         ---------------------------------------------------------
                                   SCF
            by Justin Turney, Rob Parrish, and Andy Simmonett
                              RHF Reference
                        1 Threads,    250 MiB Core
         ---------------------------------------------------------

  ==> Geometry <==

    Molecular point group: c2v

    Geometry (in Angstrom), charge = 0, multiplicity = 1:

       Center              X                  Y                   Z       
    ------------   -----------------  -----------------  -----------------
           O          0.000000000000     0.000000000000    -0.073726329877
           H          0.000000000000    -0.732369622770     0.585045178510
           H          0.000000000000     0.732369622770     0.585045178510

  Running in c2v symmetry.

  Nuclear repulsion =    8.956517077681932

  Charge       = 0
  Multiplicity = 1
  Electrons    = 10
  Nalpha       = 5
  Nbeta        = 5

  ==> Algorithm <==

  SCF Algorithm Type is PK.
  DIIS disabled.
  MOM disabled.
  Fractional occupation disabled.
  Guess Type is CORE.
  Energy threshold   = 1.00e-10
  Density threshold  = 1.00e-10
  Integral threshold = 0.00e+00

  ==> Primary Basis <==

  Basis Set: STO-3G
    Number of shells: 5
    Number of basis function: 7
    Number of Cartesian functions: 7
    Spherical Harmonics?: true
    Max angular momentum: 1

  ==> Pre-Iterations <==

  Minimum eigenvalue in the overlap matrix is 3.6067402618E-01.
  Using Symmetric Orthogonalization.
  SCF Guess: Core (One-Electron) Hamiltonian.

  Initial RHF energy:   -54.55779700800923

   -------------------------------------------------------
    Irrep   Nso     Nmo     Nalpha   Nbeta   Ndocc  Nsocc
   -------------------------------------------------------
     A1         4       4       3       3       3       0
     A2         0       0       0       0       0       0
     B1         1       1       1       1       1       0
     B2         2       2       1       1       1       0
   -------------------------------------------------------
    Total       7       7       5       5       5       0
   -------------------------------------------------------

  ==> Integral Setup <==

 MINTS: Wrapper to libmints.
   by Justin Turney

   Calculation information:
      Number of atoms:                   3
      Number of AO shells:               5
      Number of SO shells:               4
      Number of primitives:             15
      Number of atomic orbitals:         7
      Number of basis functions:         7

      Number of irreps:                  4
      Number of functions per irrep: [   4    0    1    2 ]

      Overlap, kinetic, potential, dipole, and quadrupole integrals
        stored in file 35.

      Computing two-electron integrals...done
      Computed 138 non-zero two-electron integrals.
        Stored in file 33.

  ==> Iterations <==

                        Total Energy        Delta E     Density RMS

   @RHF iter   1:   -73.23197291305428   -1.86742e+01   0.00000e+00 
   @RHF iter   2:   -74.92569573907116   -1.69372e+00   4.03970e-01 
   @RHF iter   3:   -74.96353362084113   -3.78379e-02   6.19136e-02 
   @RHF iter   4:   -74.96492711102621   -1.39349e-03   9.80311e-03 
   @RHF iter   5:   -74.96505911806057   -1.32007e-04   3.59465e-03 
   @RHF iter   6:   -74.96508099229600   -2.18742e-05   1.35911e-03 
   @RHF iter   7:   -74.96508508875583   -4.09646e-06   5.79074e-04 
   @RHF iter   8:   -74.96508588025576   -7.91500e-07   2.49573e-04 
   @RHF iter   9:   -74.96508603449222   -1.54236e-07   1.09145e-04 
   @RHF iter  10:   -74.96508606462088   -3.01287e-08   4.79651e-05 
   @RHF iter  11:   -74.96508607051028   -5.88940e-09   2.11428e-05 
   @RHF iter  12:   -74.96508607166176   -1.15148e-09   9.33311e-06 
   @RHF iter  13:   -74.96508607188689   -2.25128e-10   4.12323e-06 
   @RHF iter  14:   -74.96508607193090   -4.40110e-11   1.82234e-06 
   @RHF iter  15:   -74.96508607193952   -8.62599e-12   8.05602e-07 
   @RHF iter  16:   -74.96508607194120   -1.67688e-12   3.56176e-07 
   @RHF iter  17:   -74.96508607194151   -3.12639e-13   1.57484e-07 
   @RHF iter  18:   -74.96508607194160   -8.52651e-14   6.96346e-08 
   @RHF iter  19:   -74.96508607194163   -2.84217e-14   3.07908e-08 
   @RHF iter  20:   -74.96508607194163    0.00000e+00   1.36151e-08 
   @RHF iter  21:   -74.96508607194164   -1.42109e-14   6.02039e-09 
   @RHF iter  22:   -74.96508607194160    4.26326e-14   2.66213e-09 
   @RHF iter  23:   -74.96508607194158    1.42109e-14   1.17716e-09 
   @RHF iter  24:   -74.96508607194158    0.00000e+00   5.20522e-10 
   @RHF iter  25:   -74.96508607194160   -1.42109e-14   2.30168e-10 
   @RHF iter  26:   -74.96508607194160    0.00000e+00   1.01778e-10 

  ==> Post-Iterations <==

	Orbital Energies (a.u.)
	-----------------------

	Doubly Occupied:                                                      

	   1A1   -20.255249     2A1    -1.263809     1B2    -0.588750  
	   3A1    -0.469382     1B1    -0.395254  

	Virtual:                                                              

	   4A1     0.591162     2B2     0.687668  

	Final Occupation by Irrep:
	         A1    A2    B1    B2 
	DOCC [     3,    0,    1,    1 ]

  Energy converged.

  @RHF Final Energy:   -74.96508607194160

   => Energetics <=

    Nuclear Repulsion Energy =          8.9565170776819318
    One-Electron Energy =            -121.8983191438361331
    Two-Electron Energy =              37.9767159942126113
    DFT Functional Energy =             0.0000000000000000
    Empirical Dispersion Energy =       0.0000000000000000
    Total Energy =                    -74.9650860719415846

  ==> Properties <==

  Nuclear Dipole Moment: (a.u.)
     X:     0.0000      Y:     0.0000      Z:     1.0966

  Electronic Dipole Moment: (a.u.)
     X:     0.0000      Y:     0.0000      Z:    -0.4127

  Dipole Moment: (a.u.)
     X:     0.0000      Y:     0.0000      Z:     0.6838     Total:     0.6838

  Dipole Moment: (Debye)
     X:     0.0000      Y:     0.0000      Z:     1.7381     Total:     1.7381


  Saving occupied orbitals to File 180.

*** tstop() called on lawn-143-215-103-161.lawn.gatech.edu at Fri Apr 27 13:58:05 2012
Module time:
	user time   =       0.04 seconds =       0.00 minutes
	system time =       0.00 seconds =       0.00 minutes
	total time  =          0 seconds =       0.00 minutes
Total time:
	user time   =       0.20 seconds =       0.00 minutes
	system time =       0.04 seconds =       0.00 minutes
	total time  =          0 seconds =       0.00 minutes

  //>>>>>>>>>>>>>>>>>>>>>>>>>>>>>>>>>>>//
  //    Loading displacement 2 of 5    //
  //<<<<<<<<<<<<<<<<<<<<<<<<<<<<<<<<<<<//

*** tstart() called on lawn-143-215-103-161.lawn.gatech.edu
*** at Fri Apr 27 13:58:05 2012

	There are an even number of electrons - assuming singlet.
	Specify the multiplicity with the MULTP option in the
	input if this is incorrect


         ---------------------------------------------------------
                                   SCF
            by Justin Turney, Rob Parrish, and Andy Simmonett
                              RHF Reference
                        1 Threads,    250 MiB Core
         ---------------------------------------------------------

  ==> Geometry <==

    Molecular point group: c2v

    Geometry (in Angstrom), charge = 0, multiplicity = 1:

       Center              X                  Y                   Z       
    ------------   -----------------  -----------------  -----------------
           O          0.000000000000     0.000000000000    -0.073283686397
           H          0.000000000000    -0.732369622770     0.581532641887
           H          0.000000000000     0.732369622770     0.581532641887

  Running in c2v symmetry.

  Nuclear repulsion =    8.979620452240285

  Charge       = 0
  Multiplicity = 1
  Electrons    = 10
  Nalpha       = 5
  Nbeta        = 5

  ==> Algorithm <==

  SCF Algorithm Type is PK.
  DIIS disabled.
  MOM disabled.
  Fractional occupation disabled.
  Guess Type is CORE.
  Energy threshold   = 1.00e-10
  Density threshold  = 1.00e-10
  Integral threshold = 0.00e+00

  ==> Primary Basis <==

  Basis Set: STO-3G
    Number of shells: 5
    Number of basis function: 7
    Number of Cartesian functions: 7
    Spherical Harmonics?: true
    Max angular momentum: 1

  ==> Pre-Iterations <==

  Minimum eigenvalue in the overlap matrix is 3.5889070462E-01.
  Using Symmetric Orthogonalization.
  SCF Guess: Core (One-Electron) Hamiltonian.

  Initial RHF energy:   -54.55007664523749

   -------------------------------------------------------
    Irrep   Nso     Nmo     Nalpha   Nbeta   Ndocc  Nsocc
   -------------------------------------------------------
     A1         4       4       3       3       3       0
     A2         0       0       0       0       0       0
     B1         1       1       1       1       1       0
     B2         2       2       1       1       1       0
   -------------------------------------------------------
    Total       7       7       5       5       5       0
   -------------------------------------------------------

  ==> Integral Setup <==

 MINTS: Wrapper to libmints.
   by Justin Turney

   Calculation information:
      Number of atoms:                   3
      Number of AO shells:               5
      Number of SO shells:               4
      Number of primitives:             15
      Number of atomic orbitals:         7
      Number of basis functions:         7

      Number of irreps:                  4
      Number of functions per irrep: [   4    0    1    2 ]

      Overlap, kinetic, potential, dipole, and quadrupole integrals
        stored in file 35.

      Computing two-electron integrals...done
      Computed 138 non-zero two-electron integrals.
        Stored in file 33.

  ==> Iterations <==

                        Total Energy        Delta E     Density RMS

   @RHF iter   1:   -73.23138836412187   -1.86813e+01   0.00000e+00 
   @RHF iter   2:   -74.92765035696451   -1.69626e+00   4.04017e-01 
   @RHF iter   3:   -74.96363553568024   -3.59852e-02   6.03696e-02 
   @RHF iter   4:   -74.96496340594608   -1.32787e-03   9.63855e-03 
   @RHF iter   5:   -74.96509198564708   -1.28580e-04   3.55058e-03 
   @RHF iter   6:   -74.96511332901478   -2.13434e-05   1.34778e-03 
   @RHF iter   7:   -74.96511731162371   -3.98261e-06   5.72770e-04 
   @RHF iter   8:   -74.96511807773433   -7.66111e-07   2.46410e-04 
   @RHF iter   9:   -74.96511822635068   -1.48616e-07   1.07516e-04 
   @RHF iter  10:   -74.96511825525045   -2.88998e-08   4.71436e-05 
   @RHF iter  11:   -74.96511826087419   -5.62375e-09   2.07336e-05 
   @RHF iter  12:   -74.96511826196874   -1.09455e-09   9.13175e-06 
   @RHF iter  13:   -74.96511826218180   -2.13063e-10   4.02514e-06 
   @RHF iter  14:   -74.96511826222327   -4.14673e-11   1.77497e-06 
   @RHF iter  15:   -74.96511826223134   -8.07177e-12   7.82885e-07 
   @RHF iter  16:   -74.96511826223292   -1.57740e-12   3.45350e-07 
   @RHF iter  17:   -74.96511826223323   -3.12639e-13   1.52353e-07 
   @RHF iter  18:   -74.96511826223332   -8.52651e-14   6.72135e-08 
   @RHF iter  19:   -74.96511826223328    4.26326e-14   2.96532e-08 
   @RHF iter  20:   -74.96511826223330   -2.84217e-14   1.30825e-08 
   @RHF iter  21:   -74.96511826223329    1.42109e-14   5.77181e-09 
   @RHF iter  22:   -74.96511826223326    2.84217e-14   2.54645e-09 
   @RHF iter  23:   -74.96511826223329   -2.84217e-14   1.12346e-09 
   @RHF iter  24:   -74.96511826223332   -2.84217e-14   4.95657e-10 
   @RHF iter  25:   -74.96511826223332    0.00000e+00   2.18680e-10 

  ==> Post-Iterations <==

	Orbital Energies (a.u.)
	-----------------------

	Doubly Occupied:                                                      

	   1A1   -20.254574     2A1    -1.264770     1B2    -0.590702  
	   3A1    -0.468938     1B1    -0.395194  

	Virtual:                                                              

	   4A1     0.593266     2B2     0.691471  

	Final Occupation by Irrep:
	         A1    A2    B1    B2 
	DOCC [     3,    0,    1,    1 ]

  Energy converged.

  @RHF Final Energy:   -74.96511826223332

   => Energetics <=

    Nuclear Repulsion Energy =          8.9796204522402849
    One-Electron Energy =            -121.9411201897232360
    Two-Electron Energy =              37.9963814752496063
    DFT Functional Energy =             0.0000000000000000
    Empirical Dispersion Energy =       0.0000000000000000
    Total Energy =                    -74.9651182622333465

  ==> Properties <==

  Nuclear Dipole Moment: (a.u.)
     X:     0.0000      Y:     0.0000      Z:     1.0900

  Electronic Dipole Moment: (a.u.)
     X:     0.0000      Y:     0.0000      Z:    -0.4054

  Dipole Moment: (a.u.)
     X:     0.0000      Y:     0.0000      Z:     0.6846     Total:     0.6846

  Dipole Moment: (Debye)
     X:     0.0000      Y:     0.0000      Z:     1.7400     Total:     1.7400


  Saving occupied orbitals to File 180.

*** tstop() called on lawn-143-215-103-161.lawn.gatech.edu at Fri Apr 27 13:58:05 2012
Module time:
	user time   =       0.03 seconds =       0.00 minutes
	system time =       0.01 seconds =       0.00 minutes
	total time  =          0 seconds =       0.00 minutes
Total time:
	user time   =       0.23 seconds =       0.00 minutes
	system time =       0.05 seconds =       0.00 minutes
	total time  =          0 seconds =       0.00 minutes

  //>>>>>>>>>>>>>>>>>>>>>>>>>>>>>>>>>>>//
  //    Loading displacement 3 of 5    //
  //<<<<<<<<<<<<<<<<<<<<<<<<<<<<<<<<<<<//

*** tstart() called on lawn-143-215-103-161.lawn.gatech.edu
*** at Fri Apr 27 13:58:05 2012

	There are an even number of electrons - assuming singlet.
	Specify the multiplicity with the MULTP option in the
	input if this is incorrect


         ---------------------------------------------------------
                                   SCF
            by Justin Turney, Rob Parrish, and Andy Simmonett
                              RHF Reference
                        1 Threads,    250 MiB Core
         ---------------------------------------------------------

  ==> Geometry <==

    Molecular point group: c2v

    Geometry (in Angstrom), charge = 0, multiplicity = 1:

       Center              X                  Y                   Z       
    ------------   -----------------  -----------------  -----------------
           O          0.000000000000     0.000000000000    -0.073505008137
           H          0.000000000000    -0.734233269395     0.583288910199
           H          0.000000000000     0.734233269395     0.583288910199

  Running in c2v symmetry.

  Nuclear repulsion =    8.955017370416725

  Charge       = 0
  Multiplicity = 1
  Electrons    = 10
  Nalpha       = 5
  Nbeta        = 5

  ==> Algorithm <==

  SCF Algorithm Type is PK.
  DIIS disabled.
  MOM disabled.
  Fractional occupation disabled.
  Guess Type is CORE.
  Energy threshold   = 1.00e-10
  Density threshold  = 1.00e-10
  Integral threshold = 0.00e+00

  ==> Primary Basis <==

  Basis Set: STO-3G
    Number of shells: 5
    Number of basis function: 7
    Number of Cartesian functions: 7
    Spherical Harmonics?: true
    Max angular momentum: 1

  ==> Pre-Iterations <==

  Minimum eigenvalue in the overlap matrix is 3.6067171397E-01.
  Using Symmetric Orthogonalization.
  SCF Guess: Core (One-Electron) Hamiltonian.

  Initial RHF energy:   -54.55916913232206

   -------------------------------------------------------
    Irrep   Nso     Nmo     Nalpha   Nbeta   Ndocc  Nsocc
   -------------------------------------------------------
     A1         4       4       3       3       3       0
     A2         0       0       0       0       0       0
     B1         1       1       1       1       1       0
     B2         2       2       1       1       1       0
   -------------------------------------------------------
    Total       7       7       5       5       5       0
   -------------------------------------------------------

  ==> Integral Setup <==

 MINTS: Wrapper to libmints.
   by Justin Turney

   Calculation information:
      Number of atoms:                   3
      Number of AO shells:               5
      Number of SO shells:               4
      Number of primitives:             15
      Number of atomic orbitals:         7
      Number of basis functions:         7

      Number of irreps:                  4
      Number of functions per irrep: [   4    0    1    2 ]

      Overlap, kinetic, potential, dipole, and quadrupole integrals
        stored in file 35.

      Computing two-electron integrals...done
      Computed 138 non-zero two-electron integrals.
        Stored in file 33.

  ==> Iterations <==

                        Total Energy        Delta E     Density RMS

   @RHF iter   1:   -73.23258265726209   -1.86734e+01   0.00000e+00 
   @RHF iter   2:   -74.92633480050829   -1.69375e+00   4.03797e-01 
   @RHF iter   3:   -74.96366577793115   -3.73310e-02   6.14621e-02 
   @RHF iter   4:   -74.96504485684846   -1.37908e-03   9.76935e-03 
   @RHF iter   5:   -74.96517689831501   -1.32041e-04   3.59382e-03 
   @RHF iter   6:   -74.96519884644339   -2.19481e-05   1.36231e-03 
   @RHF iter   7:   -74.96520295873758   -4.11229e-06   5.80530e-04 
   @RHF iter   8:   -74.96520375323202   -7.94494e-07   2.50248e-04 
   @RHF iter   9:   -74.96520390801979   -1.54788e-07   1.09436e-04 
   @RHF iter  10:   -74.96520393824892   -3.02291e-08   4.80892e-05 
   @RHF iter  11:   -74.96520394415653   -5.90761e-09   2.11953e-05 
   @RHF iter  12:   -74.96520394531129   -1.15476e-09   9.35521e-06 
   @RHF iter  13:   -74.96520394553701   -2.25725e-10   4.13249e-06 
   @RHF iter  14:   -74.96520394558119   -4.41815e-11   1.82621e-06 
   @RHF iter  15:   -74.96520394558978   -8.58336e-12   8.07215e-07 
   @RHF iter  16:   -74.96520394559147   -1.69109e-12   3.56845e-07 
   @RHF iter  17:   -74.96520394559181   -3.41061e-13   1.57760e-07 
   @RHF iter  18:   -74.96520394559188   -7.10543e-14   6.97480e-08 
   @RHF iter  19:   -74.96520394559187    1.42109e-14   3.08371e-08 
   @RHF iter  20:   -74.96520394559185    1.42109e-14   1.36339e-08 
   @RHF iter  21:   -74.96520394559188   -2.84217e-14   6.02796e-09 
   @RHF iter  22:   -74.96520394559190   -1.42109e-14   2.66514e-09 
   @RHF iter  23:   -74.96520394559187    2.84217e-14   1.17834e-09 
   @RHF iter  24:   -74.96520394559188   -1.42109e-14   5.20983e-10 
   @RHF iter  25:   -74.96520394559190   -1.42109e-14   2.30342e-10 
   @RHF iter  26:   -74.96520394559185    4.26326e-14   1.01843e-10 

  ==> Post-Iterations <==

	Orbital Energies (a.u.)
	-----------------------

	Doubly Occupied:                                                      

	   1A1   -20.254950     2A1    -1.263452     1B2    -0.589320  
	   3A1    -0.468657     1B1    -0.395071  

	Virtual:                                                              

	   4A1     0.590736     2B2     0.688345  

	Final Occupation by Irrep:
	         A1    A2    B1    B2 
	DOCC [     3,    0,    1,    1 ]

  Energy converged.

  @RHF Final Energy:   -74.96520394559185

   => Energetics <=

    Nuclear Repulsion Energy =          8.9550173704167246
    One-Electron Energy =            -121.8975403977584051
    Two-Electron Energy =              37.9773190817498332
    DFT Functional Energy =             0.0000000000000000
    Empirical Dispersion Energy =       0.0000000000000000
    Total Energy =                    -74.9652039455918384

  ==> Properties <==

  Nuclear Dipole Moment: (a.u.)
     X:     0.0000      Y:     0.0000      Z:     1.0933

  Electronic Dipole Moment: (a.u.)
     X:     0.0000      Y:     0.0000      Z:    -0.4102

  Dipole Moment: (a.u.)
     X:     0.0000      Y:     0.0000      Z:     0.6831     Total:     0.6831

  Dipole Moment: (Debye)
     X:     0.0000      Y:     0.0000      Z:     1.7362     Total:     1.7362


  Saving occupied orbitals to File 180.

*** tstop() called on lawn-143-215-103-161.lawn.gatech.edu at Fri Apr 27 13:58:05 2012
Module time:
	user time   =       0.03 seconds =       0.00 minutes
	system time =       0.01 seconds =       0.00 minutes
	total time  =          0 seconds =       0.00 minutes
Total time:
	user time   =       0.26 seconds =       0.00 minutes
	system time =       0.06 seconds =       0.00 minutes
	total time  =          0 seconds =       0.00 minutes

  //>>>>>>>>>>>>>>>>>>>>>>>>>>>>>>>>>>>//
  //    Loading displacement 4 of 5    //
  //<<<<<<<<<<<<<<<<<<<<<<<<<<<<<<<<<<<//

*** tstart() called on lawn-143-215-103-161.lawn.gatech.edu
*** at Fri Apr 27 13:58:05 2012

	There are an even number of electrons - assuming singlet.
	Specify the multiplicity with the MULTP option in the
	input if this is incorrect


         ---------------------------------------------------------
                                   SCF
            by Justin Turney, Rob Parrish, and Andy Simmonett
                              RHF Reference
                        1 Threads,    250 MiB Core
         ---------------------------------------------------------

  ==> Geometry <==

    Molecular point group: c2v

    Geometry (in Angstrom), charge = 0, multiplicity = 1:

       Center              X                  Y                   Z       
    ------------   -----------------  -----------------  -----------------
           O          0.000000000000     0.000000000000    -0.073505008137
           H          0.000000000000    -0.730505976146     0.583288910199
           H          0.000000000000     0.730505976146     0.583288910199

  Running in c2v symmetry.

  Nuclear repulsion =    8.981133578745936

  Charge       = 0
  Multiplicity = 1
  Electrons    = 10
  Nalpha       = 5
  Nbeta        = 5

  ==> Algorithm <==

  SCF Algorithm Type is PK.
  DIIS disabled.
  MOM disabled.
  Fractional occupation disabled.
  Guess Type is CORE.
  Energy threshold   = 1.00e-10
  Density threshold  = 1.00e-10
  Integral threshold = 0.00e+00

  ==> Primary Basis <==

  Basis Set: STO-3G
    Number of shells: 5
    Number of basis function: 7
    Number of Cartesian functions: 7
    Spherical Harmonics?: true
    Max angular momentum: 1

  ==> Pre-Iterations <==

  Minimum eigenvalue in the overlap matrix is 3.5889228444E-01.
  Using Symmetric Orthogonalization.
  SCF Guess: Core (One-Electron) Hamiltonian.

  Initial RHF energy:   -54.54869425282864

   -------------------------------------------------------
    Irrep   Nso     Nmo     Nalpha   Nbeta   Ndocc  Nsocc
   -------------------------------------------------------
     A1         4       4       3       3       3       0
     A2         0       0       0       0       0       0
     B1         1       1       1       1       1       0
     B2         2       2       1       1       1       0
   -------------------------------------------------------
    Total       7       7       5       5       5       0
   -------------------------------------------------------

  ==> Integral Setup <==

 MINTS: Wrapper to libmints.
   by Justin Turney

   Calculation information:
      Number of atoms:                   3
      Number of AO shells:               5
      Number of SO shells:               4
      Number of primitives:             15
      Number of atomic orbitals:         7
      Number of basis functions:         7

      Number of irreps:                  4
      Number of functions per irrep: [   4    0    1    2 ]

      Overlap, kinetic, potential, dipole, and quadrupole integrals
        stored in file 35.

      Computing two-electron integrals...done
      Computed 138 non-zero two-electron integrals.
        Stored in file 33.

  ==> Iterations <==

                        Total Energy        Delta E     Density RMS

   @RHF iter   1:   -73.23077741883121   -1.86821e+01   0.00000e+00 
   @RHF iter   2:   -74.92701887768825   -1.69624e+00   4.04189e-01 
   @RHF iter   3:   -74.96350115497226   -3.64823e-02   6.08200e-02 
   @RHF iter   4:   -74.96484287996188   -1.34172e-03   9.67118e-03 
   @RHF iter   5:   -74.96497143695915   -1.28557e-04   3.55149e-03 
   @RHF iter   6:   -74.96499271230793   -2.12753e-05   1.34476e-03 
   @RHF iter   7:   -74.96499668032010   -3.96801e-06   5.71383e-04 
   @RHF iter   8:   -74.96499744367935   -7.63359e-07   2.45766e-04 
   @RHF iter   9:   -74.96499759179144   -1.48112e-07   1.07239e-04 
   @RHF iter  10:   -74.96499762059976   -2.88083e-08   4.70255e-05 
   @RHF iter  11:   -74.96499762620705   -5.60729e-09   2.06837e-05 
   @RHF iter  12:   -74.96499762729866   -1.09161e-09   9.11079e-06 
   @RHF iter  13:   -74.96499762751122   -2.12566e-10   4.01636e-06 
   @RHF iter  14:   -74.96499762755252   -4.12967e-11   1.77130e-06 
   @RHF iter  15:   -74.96499762756061   -8.08598e-12   7.81364e-07 
   @RHF iter  16:   -74.96499762756216   -1.54898e-12   3.44720e-07 
   @RHF iter  17:   -74.96499762756248   -3.26850e-13   1.52093e-07 
   @RHF iter  18:   -74.96499762756250   -1.42109e-14   6.71069e-08 
   @RHF iter  19:   -74.96499762756257   -7.10543e-14   2.96097e-08 
   @RHF iter  20:   -74.96499762756254    2.84217e-14   1.30649e-08 
   @RHF iter  21:   -74.96499762756254    0.00000e+00   5.76473e-09 
   @RHF iter  22:   -74.96499762756254    0.00000e+00   2.54363e-09 
   @RHF iter  23:   -74.96499762756260   -5.68434e-14   1.12235e-09 
   @RHF iter  24:   -74.96499762756255    4.26326e-14   4.95230e-10 
   @RHF iter  25:   -74.96499762756252    2.84217e-14   2.18515e-10 

  ==> Post-Iterations <==

	Orbital Energies (a.u.)
	-----------------------

	Doubly Occupied:                                                      

	   1A1   -20.254875     2A1    -1.265131     1B2    -0.590128  
	   3A1    -0.469666     1B1    -0.395377  

	Virtual:                                                              

	   4A1     0.593692     2B2     0.690791  

	Final Occupation by Irrep:
	         A1    A2    B1    B2 
	DOCC [     3,    0,    1,    1 ]

  Energy converged.

  @RHF Final Energy:   -74.96499762756252

   => Energetics <=

    Nuclear Repulsion Energy =          8.9811335787459363
    One-Electron Energy =            -121.9419071681125359
    Two-Electron Energy =              37.9957759618040498
    DFT Functional Energy =             0.0000000000000000
    Empirical Dispersion Energy =       0.0000000000000000
    Total Energy =                    -74.9649976275625534

  ==> Properties <==

  Nuclear Dipole Moment: (a.u.)
     X:     0.0000      Y:     0.0000      Z:     1.0933

  Electronic Dipole Moment: (a.u.)
     X:     0.0000      Y:     0.0000      Z:    -0.4079

  Dipole Moment: (a.u.)
     X:     0.0000      Y:     0.0000      Z:     0.6853     Total:     0.6853

  Dipole Moment: (Debye)
     X:     0.0000      Y:     0.0000      Z:     1.7420     Total:     1.7420


  Saving occupied orbitals to File 180.

*** tstop() called on lawn-143-215-103-161.lawn.gatech.edu at Fri Apr 27 13:58:05 2012
Module time:
	user time   =       0.03 seconds =       0.00 minutes
	system time =       0.00 seconds =       0.00 minutes
	total time  =          0 seconds =       0.00 minutes
Total time:
	user time   =       0.29 seconds =       0.00 minutes
	system time =       0.06 seconds =       0.00 minutes
	total time  =          0 seconds =       0.00 minutes

  //>>>>>>>>>>>>>>>>>>>>>>>>>>>>>>>>>>>//
  //    Loading displacement 5 of 5    //
  //<<<<<<<<<<<<<<<<<<<<<<<<<<<<<<<<<<<//

*** tstart() called on lawn-143-215-103-161.lawn.gatech.edu
*** at Fri Apr 27 13:58:05 2012

	There are an even number of electrons - assuming singlet.
	Specify the multiplicity with the MULTP option in the
	input if this is incorrect


         ---------------------------------------------------------
                                   SCF
            by Justin Turney, Rob Parrish, and Andy Simmonett
                              RHF Reference
                        1 Threads,    250 MiB Core
         ---------------------------------------------------------

  ==> Geometry <==

    Molecular point group: c2v

    Geometry (in Angstrom), charge = 0, multiplicity = 1:

       Center              X                  Y                   Z       
    ------------   -----------------  -----------------  -----------------
           O          0.000000000000     0.000000000000    -0.073505008137
           H          0.000000000000    -0.732369622770     0.583288910199
           H          0.000000000000     0.732369622770     0.583288910199

  Running in c2v symmetry.

  Nuclear repulsion =    8.968062899569341

  Charge       = 0
  Multiplicity = 1
  Electrons    = 10
  Nalpha       = 5
  Nbeta        = 5

  ==> Algorithm <==

  SCF Algorithm Type is PK.
  DIIS disabled.
  MOM disabled.
  Fractional occupation disabled.
  Guess Type is CORE.
  Energy threshold   = 1.00e-10
  Density threshold  = 1.00e-10
  Integral threshold = 0.00e+00

  ==> Primary Basis <==

  Basis Set: STO-3G
    Number of shells: 5
    Number of basis function: 7
    Number of Cartesian functions: 7
    Spherical Harmonics?: true
    Max angular momentum: 1

  ==> Pre-Iterations <==

  Minimum eigenvalue in the overlap matrix is 3.5978126763E-01.
  Using Symmetric Orthogonalization.
  SCF Guess: Core (One-Electron) Hamiltonian.

  Initial RHF energy:   -54.55394040448208

   -------------------------------------------------------
    Irrep   Nso     Nmo     Nalpha   Nbeta   Ndocc  Nsocc
   -------------------------------------------------------
     A1         4       4       3       3       3       0
     A2         0       0       0       0       0       0
     B1         1       1       1       1       1       0
     B2         2       2       1       1       1       0
   -------------------------------------------------------
    Total       7       7       5       5       5       0
   -------------------------------------------------------

  ==> Integral Setup <==

 MINTS: Wrapper to libmints.
   by Justin Turney

   Calculation information:
      Number of atoms:                   3
      Number of AO shells:               5
      Number of SO shells:               4
      Number of primitives:             15
      Number of atomic orbitals:         7
      Number of basis functions:         7

      Number of irreps:                  4
      Number of functions per irrep: [   4    0    1    2 ]

      Overlap, kinetic, potential, dipole, and quadrupole integrals
        stored in file 35.

      Computing two-electron integrals...done
      Computed 138 non-zero two-electron integrals.
        Stored in file 33.

  ==> Iterations <==

                        Total Energy        Delta E     Density RMS

   @RHF iter   1:   -73.23168241994536   -1.86777e+01   0.00000e+00 
   @RHF iter   2:   -74.92668634991414   -1.69500e+00   4.03992e-01 
   @RHF iter   3:   -74.96358977585632   -3.69034e-02   6.11392e-02 
   @RHF iter   4:   -74.96494997330969   -1.36020e-03   9.71983e-03 
   @RHF iter   5:   -74.96508025521192   -1.30282e-04   3.57250e-03 
   @RHF iter   6:   -74.96510186352540   -2.16083e-05   1.35348e-03 
   @RHF iter   7:   -74.96510590287775   -4.03935e-06   5.75927e-04 
   @RHF iter   8:   -74.96510668161646   -7.78739e-07   2.47992e-04 
   @RHF iter   9:   -74.96510683302279   -1.51406e-07   1.08329e-04 
   @RHF iter  10:   -74.96510686253154   -2.95088e-08   4.75532e-05 
   @RHF iter  11:   -74.96510686828675   -5.75521e-09   2.09374e-05 
   @RHF iter  12:   -74.96510686940942   -1.12267e-09   9.23193e-06 
   @RHF iter  13:   -74.96510686962839   -2.18961e-10   4.07389e-06 
   @RHF iter  14:   -74.96510686967112   -4.27320e-11   1.79849e-06 
   @RHF iter  15:   -74.96510686967952   -8.39862e-12   7.94158e-07 
   @RHF iter  16:   -74.96510686968112   -1.60583e-12   3.50718e-07 
   @RHF iter  17:   -74.96510686968138   -2.55795e-13   1.54895e-07 
   @RHF iter  18:   -74.96510686968149   -1.13687e-13   6.84121e-08 
   @RHF iter  19:   -74.96510686968151   -1.42109e-14   3.02160e-08 
   @RHF iter  20:   -74.96510686968151    0.00000e+00   1.33458e-08 
   @RHF iter  21:   -74.96510686968148    2.84217e-14   5.89462e-09 
   @RHF iter  22:   -74.96510686968152   -4.26326e-14   2.60356e-09 
   @RHF iter  23:   -74.96510686968152    0.00000e+00   1.14995e-09 
   @RHF iter  24:   -74.96510686968149    2.84217e-14   5.07920e-10 
   @RHF iter  25:   -74.96510686968151   -1.42109e-14   2.24339e-10 

  ==> Post-Iterations <==

	Orbital Energies (a.u.)
	-----------------------

	Doubly Occupied:                                                      

	   1A1   -20.254912     2A1    -1.264290     1B2    -0.589725  
	   3A1    -0.469161     1B1    -0.395224  

	Virtual:                                                              

	   4A1     0.592215     2B2     0.689567  

	Final Occupation by Irrep:
	         A1    A2    B1    B2 
	DOCC [     3,    0,    1,    1 ]

  Energy converged.

  @RHF Final Energy:   -74.96510686968151

   => Energetics <=

    Nuclear Repulsion Energy =          8.9680628995693414
    One-Electron Energy =            -121.9197136702854465
    Two-Electron Energy =              37.9865439010345938
    DFT Functional Energy =             0.0000000000000000
    Empirical Dispersion Energy =       0.0000000000000000
    Total Energy =                    -74.9651068696815059

  ==> Properties <==

  Nuclear Dipole Moment: (a.u.)
     X:     0.0000      Y:     0.0000      Z:     1.0933

  Electronic Dipole Moment: (a.u.)
     X:     0.0000      Y:     0.0000      Z:    -0.4091

  Dipole Moment: (a.u.)
     X:     0.0000      Y:     0.0000      Z:     0.6842     Total:     0.6842

  Dipole Moment: (Debye)
     X:     0.0000      Y:     0.0000      Z:     1.7391     Total:     1.7391


  Saving occupied orbitals to File 180.

*** tstop() called on lawn-143-215-103-161.lawn.gatech.edu at Fri Apr 27 13:58:05 2012
Module time:
	user time   =       0.03 seconds =       0.00 minutes
	system time =       0.01 seconds =       0.00 minutes
	total time  =          0 seconds =       0.00 minutes
Total time:
	user time   =       0.32 seconds =       0.01 minutes
	system time =       0.07 seconds =       0.00 minutes
	total time  =          0 seconds =       0.00 minutes

-------------------------------------------------------------

  Computing gradient from energies (fd_1_0).
	Using 3-point formula.
	Energy without displacement:  -74.9651068697
	Check energies below for precision!
	Forces are for mass-weighted, symmetry-adapted cartesians (in au).

	 Coord      Energy(-)        Energy(+)        Force
	    0    -74.9650860719   -74.9651182622    -0.0032190292
	    1    -74.9652039456   -74.9649976276     0.0206318029

	Gradient written to file11.
	Gradient saved to wavefunction.

-------------------------------------------------------------

			----------------------------------
			 OPTKING: for geometry optimizations  
			  - R.A. King,  Bethel University   
			------------------------------------

	Previous internal coordinate definitions found.
	---Fragment 1 Geometry and Gradient---
	 O           0.0000000000        0.0000000000       -0.1389043348
	 H           0.0000000000       -1.3839780151        1.1022562966
	 H           0.0000000000        1.3839780151        1.1022562966
	             0.0000000000        0.0000000000       -0.0043068503
	             0.0000000000        0.0146458558        0.0021534252
	             0.0000000000       -0.0146458558        0.0021534252

	---Fragment 1 Intrafragment Coordinates---
	 - Coordinate -           - BOHR/RAD -       - ANG/DEG -
	 R(1,2)           =         1.858998	       0.983740
	 R(1,3)           =         1.858998	       0.983740
	 B(2,1,3)         =         1.679497	      96.228071

	Current energy   :       -74.9651068697

	Energy change for the previous step:
		Projected    :        -0.0021670027
		Actual       :        -0.0004443308
	Energy ratio indicates iffy step: Trust radius decreased to 1.000e-01.


	Performing BFGS update with previous 1 gradient(s).
	Going to follow RFO solution 1.
	Projected energy change by RFO approximation:        -0.0008321390

	Back-transformation to cartesian coordinates...
	Successfully converged to displaced geometry.

	---Internal Coordinate Step in ANG or DEG, aJ/ANG or AJ/DEG ---
	 ----------------------------------------------------------------------
	 Coordinate             Previous        Force       Change         New 
	 ----------             --------       ------       ------       ------
	 R(1,2)          =      0.983740     0.077986     0.005592     0.989331
	 R(1,3)          =      0.983740     0.077986     0.005592     0.989331
	 B(2,1,3)        =     96.228071     0.001610     3.965094   100.193165
	 ----------------------------------------------------------------------

  ==> Convergence Check <==

  Measures of convergence in internal coordinates in au.
  Criteria marked as inactive (o), active & met (*), and active & unmet ( ).
  ---------------------------------------------------------------------------------------------
   Step     Total Energy     Delta E     MAX Force     RMS Force      MAX Disp      RMS Disp   
  ---------------------------------------------------------------------------------------------
    Convergence Criteria    1.00e-06 *    3.00e-04 *             o    1.20e-03 *             o
  ---------------------------------------------------------------------------------------------
      2     -74.96510687   -4.44e-04      2.12e-02      1.45e-02 o    6.92e-02      4.09e-02 o  ~
  ---------------------------------------------------------------------------------------------

	Writing optimization data to binary file.
	Structure for next step:
	Cartesian Geometry (au)
	    O     0.0000000000   0.0000000000  -0.1110089784
	    H     0.0000000000  -1.4341939011   1.0883086184
	    H     0.0000000000   1.4341939011   1.0883086184
			--------------------------
			 OPTKING Finished Execution 
			--------------------------

-------------------------------------------------------------

  Using finite-differences of energies to determine gradients (fd_geoms_1_0).
	Generating geometries for use with 3-point formula.
	Displacement size will be 5.00e-03.
	Number of atoms is 3.
	Number of symmetric SALC's is 2.
	Number of displacements (including reference) is 5.

[...]
    Total Energy =                    -74.9658947972764054

  ==> Properties <==

  Nuclear Dipole Moment: (a.u.)
     X:     0.0000      Y:     0.0000      Z:     1.0584

  Electronic Dipole Moment: (a.u.)
     X:     0.0000      Y:     0.0000      Z:    -0.3871

  Dipole Moment: (a.u.)
     X:     0.0000      Y:     0.0000      Z:     0.6713     Total:     0.6713

  Dipole Moment: (Debye)
     X:     0.0000      Y:     0.0000      Z:     1.7063     Total:     1.7063


  Saving occupied orbitals to File 180.

*** tstop() called on lawn-143-215-103-161.lawn.gatech.edu at Fri Apr 27 13:58:06 2012
Module time:
	user time   =       0.03 seconds =       0.00 minutes
	system time =       0.01 seconds =       0.00 minutes
	total time  =          0 seconds =       0.00 minutes
Total time:
	user time   =       0.59 seconds =       0.01 minutes
	system time =       0.13 seconds =       0.00 minutes
	total time  =          1 seconds =       0.02 minutes

  //>>>>>>>>>>>>>>>>>>>>>>>>>>>>>>>>>>>//
  //    Loading displacement 4 of 5    //
  //<<<<<<<<<<<<<<<<<<<<<<<<<<<<<<<<<<<//

*** tstart() called on lawn-143-215-103-161.lawn.gatech.edu
*** at Fri Apr 27 13:58:06 2012

	There are an even number of electrons - assuming singlet.
	Specify the multiplicity with the MULTP option in the
	input if this is incorrect


         ---------------------------------------------------------
                                   SCF
            by Justin Turney, Rob Parrish, and Andy Simmonett
                              RHF Reference
                        1 Threads,    250 MiB Core
         ---------------------------------------------------------

  ==> Geometry <==

    Molecular point group: c2v

    Geometry (in Angstrom), charge = 0, multiplicity = 1:

       Center              X                  Y                   Z       
    ------------   -----------------  -----------------  -----------------
           O          0.000000000000     0.000000000000    -0.071162807880
           H          0.000000000000    -0.756266460861     0.564702701319
           H          0.000000000000     0.756266460861     0.564702701319

  Running in c2v symmetry.

  Nuclear repulsion =    8.919006724213371

  Charge       = 0
  Multiplicity = 1
  Electrons    = 10
  Nalpha       = 5
  Nbeta        = 5

  ==> Algorithm <==

  SCF Algorithm Type is PK.
  DIIS disabled.
  MOM disabled.
  Fractional occupation disabled.
  Guess Type is CORE.
  Energy threshold   = 1.00e-10
  Density threshold  = 1.00e-10
  Integral threshold = 0.00e+00

  ==> Primary Basis <==

  Basis Set: STO-3G
    Number of shells: 5
    Number of basis function: 7
    Number of Cartesian functions: 7
    Spherical Harmonics?: true
    Max angular momentum: 1

  ==> Pre-Iterations <==

  Minimum eigenvalue in the overlap matrix is 3.6230034498E-01.
  Using Symmetric Orthogonalization.
  SCF Guess: Core (One-Electron) Hamiltonian.

  Initial RHF energy:   -54.58108507707747

   -------------------------------------------------------
    Irrep   Nso     Nmo     Nalpha   Nbeta   Ndocc  Nsocc
   -------------------------------------------------------
     A1         4       4       3       3       3       0
     A2         0       0       0       0       0       0
     B1         1       1       1       1       1       0
     B2         2       2       1       1       1       0
   -------------------------------------------------------
    Total       7       7       5       5       5       0
   -------------------------------------------------------

  ==> Integral Setup <==

 MINTS: Wrapper to libmints.
   by Justin Turney

   Calculation information:
      Number of atoms:                   3
      Number of AO shells:               5
      Number of SO shells:               4
      Number of primitives:             15
      Number of atomic orbitals:         7
      Number of basis functions:         7

      Number of irreps:                  4
      Number of functions per irrep: [   4    0    1    2 ]

      Overlap, kinetic, potential, dipole, and quadrupole integrals
        stored in file 35.

      Computing two-electron integrals...done
      Computed 138 non-zero two-electron integrals.
        Stored in file 33.

  ==> Iterations <==

                        Total Energy        Delta E     Density RMS

   @RHF iter   1:   -73.24013759840896   -1.86591e+01   0.00000e+00 
   @RHF iter   2:   -74.93141352310371   -1.69128e+00   4.01708e-01 
   @RHF iter   3:   -74.96445759426634   -3.30441e-02   5.74671e-02 
   @RHF iter   4:   -74.96573139809740   -1.27380e-03   9.53687e-03 
   @RHF iter   5:   -74.96586697372133   -1.35576e-04   3.62588e-03 
   @RHF iter   6:   -74.96589028467436   -2.33110e-05   1.41069e-03 
   @RHF iter   7:   -74.96589469640533   -4.41173e-06   6.04215e-04 
   @RHF iter   8:   -74.96589555264035   -8.56235e-07   2.61658e-04 
   @RHF iter   9:   -74.96589571999553   -1.67355e-07   1.14699e-04 
   @RHF iter  10:   -74.96589575277333   -3.27778e-08   5.05021e-05 
   @RHF iter  11:   -74.96589575919695   -6.42362e-09   2.22951e-05 
   @RHF iter  12:   -74.96589576045604   -1.25908e-09   9.85555e-06 
   @RHF iter  13:   -74.96589576070284   -2.46800e-10   4.35979e-06 
   @RHF iter  14:   -74.96589576075124   -4.84022e-11   1.92938e-06 
   @RHF iter  15:   -74.96589576076069   -9.45022e-12   8.54004e-07 
   @RHF iter  16:   -74.96589576076259   -1.90425e-12   3.78053e-07 
   @RHF iter  17:   -74.96589576076290   -3.12639e-13   1.67368e-07 
   @RHF iter  18:   -74.96589576076300   -9.94760e-14   7.40978e-08 
   @RHF iter  19:   -74.96589576076300    0.00000e+00   3.28056e-08 
   @RHF iter  20:   -74.96589576076302   -1.42109e-14   1.45243e-08 
   @RHF iter  21:   -74.96589576076306   -4.26326e-14   6.43047e-09 
   @RHF iter  22:   -74.96589576076303    2.84217e-14   2.84703e-09 
   @RHF iter  23:   -74.96589576076306   -2.84217e-14   1.26050e-09 
   @RHF iter  24:   -74.96589576076300    5.68434e-14   5.58079e-10 
   @RHF iter  25:   -74.96589576076303   -2.84217e-14   2.47085e-10 
   @RHF iter  26:   -74.96589576076300    2.84217e-14   1.09396e-10 

  ==> Post-Iterations <==

	Orbital Energies (a.u.)
	-----------------------

	Doubly Occupied:                                                      

	   1A1   -20.251563     2A1    -1.258346     1B2    -0.594281  
	   3A1    -0.460224     1B1    -0.392774  

	Virtual:                                                              

	   4A1     0.583285     2B2     0.693827  

	Final Occupation by Irrep:
	         A1    A2    B1    B2 
	DOCC [     3,    0,    1,    1 ]

  Energy converged.

  @RHF Final Energy:   -74.96589576076300

   => Energetics <=

    Nuclear Repulsion Energy =          8.9190067242133715
    One-Electron Energy =            -121.8554294492105186
    Two-Electron Energy =              37.9705269642341321
    DFT Functional Energy =             0.0000000000000000
    Empirical Dispersion Energy =       0.0000000000000000
    Total Energy =                    -74.9658957607630043

  ==> Properties <==

  Nuclear Dipole Moment: (a.u.)
     X:     0.0000      Y:     0.0000      Z:     1.0584

  Electronic Dipole Moment: (a.u.)
     X:     0.0000      Y:     0.0000      Z:    -0.3849

  Dipole Moment: (a.u.)
     X:     0.0000      Y:     0.0000      Z:     0.6735     Total:     0.6735

  Dipole Moment: (Debye)
     X:     0.0000      Y:     0.0000      Z:     1.7119     Total:     1.7119


  Saving occupied orbitals to File 180.

*** tstop() called on lawn-143-215-103-161.lawn.gatech.edu at Fri Apr 27 13:58:06 2012
Module time:
	user time   =       0.03 seconds =       0.00 minutes
	system time =       0.01 seconds =       0.00 minutes
	total time  =          0 seconds =       0.00 minutes
Total time:
	user time   =       0.62 seconds =       0.01 minutes
	system time =       0.14 seconds =       0.00 minutes
	total time  =          1 seconds =       0.02 minutes

  //>>>>>>>>>>>>>>>>>>>>>>>>>>>>>>>>>>>//
  //    Loading displacement 5 of 5    //
  //<<<<<<<<<<<<<<<<<<<<<<<<<<<<<<<<<<<//

*** tstart() called on lawn-143-215-103-161.lawn.gatech.edu
*** at Fri Apr 27 13:58:06 2012

	There are an even number of electrons - assuming singlet.
	Specify the multiplicity with the MULTP option in the
	input if this is incorrect


         ---------------------------------------------------------
                                   SCF
            by Justin Turney, Rob Parrish, and Andy Simmonett
                              RHF Reference
                        1 Threads,    250 MiB Core
         ---------------------------------------------------------

  ==> Geometry <==

    Molecular point group: c2v

    Geometry (in Angstrom), charge = 0, multiplicity = 1:

       Center              X                  Y                   Z       
    ------------   -----------------  -----------------  -----------------
           O          0.000000000000     0.000000000000    -0.071162807880
           H          0.000000000000    -0.758130107486     0.564702701319
           H          0.000000000000     0.758130107486     0.564702701319

  Running in c2v symmetry.

  Nuclear repulsion =    8.905787127659769

  Charge       = 0
  Multiplicity = 1
  Electrons    = 10
  Nalpha       = 5
  Nbeta        = 5

  ==> Algorithm <==

  SCF Algorithm Type is PK.
  DIIS disabled.
  MOM disabled.
  Fractional occupation disabled.
  Guess Type is CORE.
  Energy threshold   = 1.00e-10
  Density threshold  = 1.00e-10
  Integral threshold = 0.00e+00

  ==> Primary Basis <==

  Basis Set: STO-3G
    Number of shells: 5
    Number of basis function: 7
    Number of Cartesian functions: 7
    Spherical Harmonics?: true
    Max angular momentum: 1

  ==> Pre-Iterations <==

  Minimum eigenvalue in the overlap matrix is 3.6323169289E-01.
  Using Symmetric Orthogonalization.
  SCF Guess: Core (One-Electron) Hamiltonian.

  Initial RHF energy:   -54.58629450401283

   -------------------------------------------------------
    Irrep   Nso     Nmo     Nalpha   Nbeta   Ndocc  Nsocc
   -------------------------------------------------------
     A1         4       4       3       3       3       0
     A2         0       0       0       0       0       0
     B1         1       1       1       1       1       0
     B2         2       2       1       1       1       0
   -------------------------------------------------------
    Total       7       7       5       5       5       0
   -------------------------------------------------------

  ==> Integral Setup <==

 MINTS: Wrapper to libmints.
   by Justin Turney

   Calculation information:
      Number of atoms:                   3
      Number of AO shells:               5
      Number of SO shells:               4
      Number of primitives:             15
      Number of atomic orbitals:         7
      Number of basis functions:         7

      Number of irreps:                  4
      Number of functions per irrep: [   4    0    1    2 ]

      Overlap, kinetic, potential, dipole, and quadrupole integrals
        stored in file 35.

      Computing two-electron integrals...done
      Computed 138 non-zero two-electron integrals.
        Stored in file 33.

  ==> Iterations <==

                        Total Energy        Delta E     Density RMS

   @RHF iter   1:   -73.24101971857381   -1.86547e+01   0.00000e+00 
   @RHF iter   2:   -74.93095676759744   -1.68994e+00   4.01517e-01 
   @RHF iter   3:   -74.96444117161541   -3.34844e-02   5.78237e-02 
   @RHF iter   4:   -74.96573430675922   -1.29314e-03   9.58894e-03 
   @RHF iter   5:   -74.96587188010602   -1.37573e-04   3.64966e-03 
   @RHF iter   6:   -74.96589559170565   -2.37116e-05   1.42090e-03 
   @RHF iter   7:   -74.96590009034482   -4.49864e-06   6.09519e-04 
   @RHF iter   8:   -74.96590096547071   -8.75126e-07   2.64269e-04 
   @RHF iter   9:   -74.96590113690267   -1.71432e-07   1.15982e-04 
   @RHF iter  10:   -74.96590117055358   -3.36509e-08   5.11253e-05 
   @RHF iter  11:   -74.96590117716291   -6.60933e-09   2.25958e-05 
   @RHF iter  12:   -74.96590117846118   -1.29828e-09   9.99960e-06 
   @RHF iter  13:   -74.96590117871631   -2.55127e-10   4.42843e-06 
   @RHF iter  14:   -74.96590117876639   -5.00791e-11   1.96193e-06 
   @RHF iter  15:   -74.96590117877626   -9.87654e-12   8.69374e-07 
   @RHF iter  16:   -74.96590117877813   -1.86162e-12   3.85282e-07 
   @RHF iter  17:   -74.96590117877857   -4.40536e-13   1.70757e-07 
   @RHF iter  18:   -74.96590117877861   -4.26326e-14   7.56819e-08 
   @RHF iter  19:   -74.96590117877862   -1.42109e-14   3.35439e-08 
   @RHF iter  20:   -74.96590117877867   -4.26326e-14   1.48676e-08 
   @RHF iter  21:   -74.96590117877865    1.42109e-14   6.58974e-09 
   @RHF iter  22:   -74.96590117877859    5.68434e-14   2.92078e-09 
   @RHF iter  23:   -74.96590117877861   -1.42109e-14   1.29458e-09 
   @RHF iter  24:   -74.96590117877872   -1.13687e-13   5.73798e-10 
   @RHF iter  25:   -74.96590117877864    8.52651e-14   2.54326e-10 
   @RHF iter  26:   -74.96590117877868   -4.26326e-14   1.12724e-10 

  ==> Post-Iterations <==

	Orbital Energies (a.u.)
	-----------------------

	Doubly Occupied:                                                      

	   1A1   -20.251590     2A1    -1.257514     1B2    -0.593813  
	   3A1    -0.459725     1B1    -0.392615  

	Virtual:                                                              

	   4A1     0.581723     2B2     0.692581  

	Final Occupation by Irrep:
	         A1    A2    B1    B2 
	DOCC [     3,    0,    1,    1 ]

  Energy converged.

  @RHF Final Energy:   -74.96590117877868

   => Energetics <=

    Nuclear Repulsion Energy =          8.9057871276597691
    One-Electron Energy =            -121.8328661297791911
    Two-Electron Energy =              37.9611778233407620
    DFT Functional Energy =             0.0000000000000000
    Empirical Dispersion Energy =       0.0000000000000000
    Total Energy =                    -74.9659011787786653

  ==> Properties <==

  Nuclear Dipole Moment: (a.u.)
     X:     0.0000      Y:     0.0000      Z:     1.0584

  Electronic Dipole Moment: (a.u.)
     X:     0.0000      Y:     0.0000      Z:    -0.3860

  Dipole Moment: (a.u.)
     X:     0.0000      Y:     0.0000      Z:     0.6724     Total:     0.6724

  Dipole Moment: (Debye)
     X:     0.0000      Y:     0.0000      Z:     1.7091     Total:     1.7091


  Saving occupied orbitals to File 180.

*** tstop() called on lawn-143-215-103-161.lawn.gatech.edu at Fri Apr 27 13:58:06 2012
Module time:
	user time   =       0.03 seconds =       0.00 minutes
	system time =       0.01 seconds =       0.00 minutes
	total time  =          0 seconds =       0.00 minutes
Total time:
	user time   =       0.65 seconds =       0.01 minutes
	system time =       0.15 seconds =       0.00 minutes
	total time  =          1 seconds =       0.02 minutes

-------------------------------------------------------------

  Computing gradient from energies (fd_1_0).
	Using 3-point formula.
	Energy without displacement:  -74.9659011788
	Check energies below for precision!
	Forces are for mass-weighted, symmetry-adapted cartesians (in au).

	 Coord      Energy(-)        Energy(+)        Force
	    0    -74.9658963152   -74.9658971776    -0.0000862354
	    1    -74.9658947973   -74.9658957608    -0.0000963487

	Gradient written to file11.
	Gradient saved to wavefunction.

-------------------------------------------------------------

			----------------------------------
			 OPTKING: for geometry optimizations  
			  - R.A. King,  Bethel University   
			------------------------------------

	Previous internal coordinate definitions found.
	---Fragment 1 Geometry and Gradient---
	 O           0.0000000000        0.0000000000       -0.1344782177
	 H           0.0000000000       -1.4326582762        1.0671334520
	 H           0.0000000000        1.4326582762        1.0671334520
	             0.0000000000        0.0000000000       -0.0001153774
	             0.0000000000       -0.0000683948        0.0000576887
	             0.0000000000        0.0000683948        0.0000576887

	---Fragment 1 Intrafragment Coordinates---
	 - Coordinate -           - BOHR/RAD -       - ANG/DEG -
	 R(1,2)           =         1.869861	       0.989488
	 R(1,3)           =         1.869861	       0.989488
	 B(2,1,3)         =         1.745765	     100.024945

	Current energy   :       -74.9659011788

	Energy change for the previous step:
		Projected    :        -0.0000012399
		Actual       :        -0.0000012171
	Energy ratio indicates good step: Trust radius increased to 4.000e-01.


	Performing BFGS update with previous 1 gradient(s).
	Going to follow RFO solution 1.
	Projected energy change by RFO approximation:        -0.0000000155

	Back-transformation to cartesian coordinates...
	Successfully converged to displaced geometry.

	---Internal Coordinate Step in ANG or DEG, aJ/ANG or AJ/DEG ---
	 ----------------------------------------------------------------------
	 Coordinate             Previous        Force       Change         New 
	 ----------             --------       ------       ------       ------
	 R(1,2)          =      0.989488    -0.000737    -0.000091     0.989397
	 R(1,3)          =      0.989488    -0.000737    -0.000091     0.989397
	 B(2,1,3)        =    100.024945     0.000000     0.001945   100.026890
	 ----------------------------------------------------------------------

  ==> Convergence Check <==

  Measures of convergence in internal coordinates in au.
  Criteria marked as inactive (o), active & met (*), and active & unmet ( ).
  ---------------------------------------------------------------------------------------------
   Step     Total Energy     Delta E     MAX Force     RMS Force      MAX Disp      RMS Disp   
  ---------------------------------------------------------------------------------------------
    Convergence Criteria    1.00e-06 *    3.00e-04 *             o    1.20e-03 *             o
  ---------------------------------------------------------------------------------------------
      4     -74.96590118   -1.22e-06      8.95e-05 *    7.31e-05 o    1.73e-04 *    1.42e-04 o  ~
  ---------------------------------------------------------------------------------------------


  **** Optimization is complete! ****

  ==> Optimization Summary <==

  Measures of convergence in internal coordinates in au.
  --------------------------------------------------------------------------------------------------------------- ~
   Step         Total Energy             Delta E       MAX Force       RMS Force        MAX Disp        RMS Disp  ~
  --------------------------------------------------------------------------------------------------------------- ~
      1     -74.964662538885    -74.964662538885      0.02372530      0.01825911      0.14437240      0.08704747  ~
      2     -74.965106869682     -0.000444330796      0.02115815      0.01445531      0.06920395      0.04087588  ~
      3     -74.965899961708     -0.000793092027      0.00084781      0.00048965      0.00293599      0.00171219  ~
      4     -74.965901178779     -0.000001217071      0.00008947      0.00007306      0.00017264      0.00014232  ~
  --------------------------------------------------------------------------------------------------------------- ~

	Writing optimization data to binary file.
	Final energy is    -74.9659011787787
	Final (previous) structure:
	Cartesian Geometry (au)
	    O     0.0000000000   0.0000000000  -0.1344782177
	    H     0.0000000000  -1.4326582762   1.0671334520
	    H     0.0000000000   1.4326582762   1.0671334520
	Saving final (previous) structure.
			--------------------------
			 OPTKING Finished Execution 
			--------------------------

	Final optimized geometry and variables (in Angstrom):

	O
	H     1    0.989488
	H     1    0.989488     2  100.024945


*** PSI4 exiting successfully. Buy a developer a beer!
