    -----------------------------------------------------------------------
          PSI4: An Open-Source Ab Initio Electronic Structure Package
                              PSI 4.0.0-beta1 Driver

               Git: Rev 8268e5ba0276eef671d5bc4a44cf66fa46407463

    J. M. Turney, A. C. Simmonett, R. M. Parrish, E. G. Hohenstein,
    F. A. Evangelista, J. T. Fermann, B. J. Mintz, L. A. Burns, J. J. Wilke,
    M. L. Abrams, N. J. Russ, M. L. Leininger, C. L. Janssen, E. T. Seidl,
    W. D. Allen, H. F. Schaefer, R. A. King, E. F. Valeev, C. D. Sherrill,
    and T. D. Crawford, WIREs Comput. Mol. Sci., (2011) (doi: 10.1002/wcms.93)

                         Additional Contributions by
    A. E. DePrince, M. Saitow, U. Bozkaya, A. Yu. Sokolov
    -----------------------------------------------------------------------


    Using LocalCommunicator (Number of processes = 1)

    Memory level set to 256.000 MB

  ==> Input File <==

--------------------------------------------------------------------------
#! H2O CISD/6-31G** Optimize Geometry by Energies

memory 250 mb

refnuc   =   9.1938886868  #TEST
refscf   = -76.0231440654  #TEST
refci    = -76.2231165692  #TEST
refcorr  = refci - refscf  #TEST

molecule h2o {
    O
    H 1 1.00
    H 1 1.00 2 103.1
}

set globals {
  basis 6-31G**
  max_force_g_convergence 0.000001
  max_disp_g_convergence  0.0001
}

thisenergy = optimize('cisd', dertype = 0)

compare_values(refnuc, h2o.nuclear_repulsion_energy(),         4, "Nuclear repulsion energy") #TEST 
compare_values(refscf, get_variable("SCF total energy"),       7, "SCF energy") #TEST
compare_values(refci, thisenergy,                              7, "CI energy") #TEST
compare_values(refcorr, get_variable("CI CORRELATION ENERGY"), 6, "CI correlation energy") #TEST
--------------------------------------------------------------------------

  Memory set to 250.000 MiB by Python script.

-------------------------------------------------------------

  Using finite-differences of energies to determine gradients (fd_geoms_1_0).
	Generating geometries for use with 3-point formula.
	Displacement size will be 5.00e-03.
	Number of atoms is 3.
	Number of symmetric SALC's is 2.
	Number of displacements (including reference) is 5.

-------------------------------------------------------------

  //>>>>>>>>>>>>>>>>>>>>>>>>>>>>>>>>>>>//
  //    Loading displacement 1 of 5    //
  //<<<<<<<<<<<<<<<<<<<<<<<<<<<<<<<<<<<//

*** tstart() called on lawn-143-215-103-161.lawn.gatech.edu
*** at Fri Apr 27 14:05:59 2012

	There are an even number of electrons - assuming singlet.
	Specify the multiplicity with the MULTP option in the
	input if this is incorrect


         ---------------------------------------------------------
                                   SCF
            by Justin Turney, Rob Parrish, and Andy Simmonett
                              RHF Reference
                        1 Threads,    250 MiB Core
         ---------------------------------------------------------

  ==> Geometry <==

    Molecular point group: c2v

    Geometry (in Angstrom), charge = 0, multiplicity = 1:

       Center              X                  Y                   Z       
    ------------   -----------------  -----------------  -----------------
           O          0.000000000000     0.000000000000    -0.069813509130
           H          0.000000000000    -0.783151105291     0.553995526155
           H          0.000000000000     0.783151105291     0.553995526155

  Running in c2v symmetry.

  Nuclear repulsion =    8.794277387917012

  Charge       = 0
  Multiplicity = 1
  Electrons    = 10
  Nalpha       = 5
  Nbeta        = 5

  ==> Algorithm <==

  SCF Algorithm Type is PK.
  DIIS enabled.
  MOM disabled.
  Fractional occupation disabled.
  Guess Type is CORE.
  Energy threshold   = 1.00e-08
  Density threshold  = 1.00e-08
  Integral threshold = 0.00e+00

  ==> Primary Basis <==

  Basis Set: 6-31G**
    Number of shells: 12
    Number of basis function: 25
    Number of Cartesian functions: 25
    Spherical Harmonics?: false
    Max angular momentum: 2

  ==> Pre-Iterations <==

  Minimum eigenvalue in the overlap matrix is 2.3400300044E-02.
  Using Symmetric Orthogonalization.
  SCF Guess: Core (One-Electron) Hamiltonian.

  Initial RHF energy:   -58.76233372072537

   -------------------------------------------------------
    Irrep   Nso     Nmo     Nalpha   Nbeta   Ndocc  Nsocc
   -------------------------------------------------------
     A1        12      12       3       3       3       0
     A2         2       2       0       0       0       0
     B1         4       4       1       1       1       0
     B2         7       7       1       1       1       0
   -------------------------------------------------------
    Total      25      25       5       5       5       0
   -------------------------------------------------------

  ==> Integral Setup <==

 MINTS: Wrapper to libmints.
   by Justin Turney

   Calculation information:
      Number of atoms:                   3
      Number of AO shells:              12
      Number of SO shells:               9
      Number of primitives:             25
      Number of atomic orbitals:        25
      Number of basis functions:        25

      Number of irreps:                  4
      Number of functions per irrep: [  12    2    4    7 ]

      Overlap, kinetic, potential, dipole, and quadrupole integrals
        stored in file 35.

      Computing two-electron integrals...done
      Computed 13617 non-zero two-electron integrals.
        Stored in file 33.

  ==> Iterations <==

                        Total Energy        Delta E     Density RMS

   @RHF iter   1:   -68.35669396815622   -9.59436e+00   0.00000e+00 
	Occupation by irrep:
	         A1    A2    B1    B2 
	DOCC [     4,    0,    0,    1 ]

   @RHF iter   2:   -71.39590395804380   -3.03921e+00   5.02851e-01 DIIS
	Occupation by irrep:
	         A1    A2    B1    B2 
	DOCC [     3,    0,    1,    1 ]

   @RHF iter   3:   -75.77144819465137   -4.37554e+00   4.76085e-01 DIIS
   @RHF iter   4:   -75.99977697829348   -2.28329e-01   1.67705e-02 DIIS
   @RHF iter   5:   -76.01655365094184   -1.67767e-02   7.82297e-03 DIIS
   @RHF iter   6:   -76.01698426629319   -4.30615e-04   1.28037e-03 DIIS
   @RHF iter   7:   -76.01703059814716   -4.63319e-05   5.69327e-04 DIIS
   @RHF iter   8:   -76.01703218895690   -1.59081e-06   9.37195e-05 DIIS
   @RHF iter   9:   -76.01703229241458   -1.03458e-07   2.93281e-05 DIIS
   @RHF iter  10:   -76.01703229501889   -2.60431e-09   4.45326e-06 DIIS
   @RHF iter  11:   -76.01703229503860   -1.97105e-11   3.07385e-07 DIIS
   @RHF iter  12:   -76.01703229503913   -5.25802e-13   5.58222e-08 DIIS

  ==> Post-Iterations <==

	Orbital Energies (a.u.)
	-----------------------

	Doubly Occupied:                                                      

	   1A1   -20.569322     2A1    -1.320187     1B2    -0.677805  
	   3A1    -0.564067     1B1    -0.495011  

	Virtual:                                                              

	   4A1     0.202170     2B2     0.292324     3B2     0.980096  
	   5A1     1.055888     6A1     1.129008     2B1     1.168572  
	   4B2     1.294996     7A1     1.414194     1A2     1.803203  
	   8A1     1.805596     3B1     1.918241     9A1     2.511693  
	   5B2     2.537511     6B2     2.710779     2A2     2.918605  
	   4B1     2.947117    10A1     3.288935    11A1     3.618482  
	   7B2     3.874147    12A1     4.076502  

	Final Occupation by Irrep:
	         A1    A2    B1    B2 
	DOCC [     3,    0,    1,    1 ]

  Energy converged.

  @RHF Final Energy:   -76.01703229503913

   => Energetics <=

    Nuclear Repulsion Energy =          8.7942773879170115
    One-Electron Energy =            -122.3698333587156810
    Two-Electron Energy =              37.5585236757595382
    DFT Functional Energy =             0.0000000000000000
    Empirical Dispersion Energy =       0.0000000000000000
    Total Energy =                    -76.0170322950391437

  ==> Properties <==

  Nuclear Dipole Moment: (a.u.)
     X:     0.0000      Y:     0.0000      Z:     1.0384

  Electronic Dipole Moment: (a.u.)
     X:     0.0000      Y:     0.0000      Z:    -0.1550

  Dipole Moment: (a.u.)
     X:     0.0000      Y:     0.0000      Z:     0.8834     Total:     0.8834

  Dipole Moment: (Debye)
     X:     0.0000      Y:     0.0000      Z:     2.2453     Total:     2.2453


  Saving occupied orbitals to File 180.

*** tstop() called on lawn-143-215-103-161.lawn.gatech.edu at Fri Apr 27 14:05:59 2012
Module time:
	user time   =       0.06 seconds =       0.00 minutes
	system time =       0.01 seconds =       0.00 minutes
	total time  =          0 seconds =       0.00 minutes
Total time:
	user time   =       0.06 seconds =       0.00 minutes
	system time =       0.01 seconds =       0.00 minutes
	total time  =          0 seconds =       0.00 minutes

*** tstart() called on lawn-143-215-103-161.lawn.gatech.edu
*** at Fri Apr 27 14:05:59 2012


	**************************************************
	* TRANSQT2: Program to transform integrals from  *
	*           the SO basis to the MO basis.        *
	*                                                *
	*            Daniel, David, & Justin             *
	**************************************************


	Input parameters:
	-----------------
	Wave function   =	DETCI
	Backtransform   =	No
	Print Level     =	1
	Print TEIs      =	No
	Reference wfn   =	RHF
	Derivative      =	None
	Delete TEI File =	Yes
	Memory (Mbytes) =	250.0
	Cache Level     =	2
	Cache Type      =	LRU
	Chkpt Parameters:
	--------------------
	Number of irreps     = 4
	Number of SOs        = 25
	Number of MOs        = 25
	Number of active MOs = 25

	Label	# SOs	# FZDC	# DOCC	# SOCC	# VIRT	# FZVR
	-----	-----	------	------	------	------	------
	 A1	   12	    0	    3	    0	    9	    0
	 A2	   2	    0	    0	    0	    2	    0
	 B1	   4	    0	    1	    0	    3	    0
	 B2	   7	    0	    1	    0	    6	    0

	Nuclear Rep. energy (chkpt) =      8.79427738791701
	SCF energy          (chkpt) =    -76.01703229503913

	Presorting SO-basis two-electron integrals.
	Sorting File: SO Ints (pq,rs) nbuckets = 1
	Frozen-core energy =    0.000000000000000
	Starting first half-transformation.
	Sorting half-transformed integrals.
	Starting second half-transformation.
	Two-electron integral transformation complete.

*** tstop() called on lawn-143-215-103-161.lawn.gatech.edu at Fri Apr 27 14:05:59 2012
Module time:
	user time   =       0.01 seconds =       0.00 minutes
	system time =       0.01 seconds =       0.00 minutes
	total time  =          0 seconds =       0.00 minutes
Total time:
	user time   =       0.07 seconds =       0.00 minutes
	system time =       0.02 seconds =       0.00 minutes
	total time  =          0 seconds =       0.00 minutes

*** tstart() called on lawn-143-215-103-161.lawn.gatech.edu
*** at Fri Apr 27 14:05:59 2012


*******************************************************
                       D E T C I  

                   C. David Sherrill
                   Matt L. Leininger
                     18 June 1999
*******************************************************




PARAMETERS: 
   EX LEVEL      =        2      H0 BLOCKSIZE =      400
   VAL EX LEVEL  =        0      H0 GUESS SIZE=      400
   H0COUPLINGSIZE=        0      H0 COUPLING  =       no
   NUM PRINT     =       20
   MAXITER       =       12      FREEZE CORE  =      yes
   NUM ROOTS     =        1      ICORE        =        1
   PRINT         =        1      FCI          =       no
   R CONV        =   1.00e-04      MIXED        =      yes
   E CONV        =   1.00e-06      MIXED4       =      yes
   OEI FILE      =       35      R4S          =       no
   REPL OTF      =       no
   TEI FILE      =       72      DIAG METHOD  =      SEM
   PRECONDITIONER= DAVIDSON      UPDATE       =   DAVIDSON
   S             =   0.0000      Ms0          =      yes
   MAX NUM VECS  =       13
   RESTART       =       no
   GUESS VECTOR  =  H0BLOCK      OPENTYPE     =     NONE
   REF SYM       =     auto
   COLLAPSE SIZE =        1      HD AVG       = EVANGELISTI
   LSE           =       no      LSE ITER     =        0
   HD OTF        =      yes      NO DFILE     =       no
   MPN           =       no      MPN SCHMIDT  =       no
   ZAPTN         =       no      MPN WIGNER   =       no
   PERT Z        =   1.0000    FOLLOW ROOT  =        0
   NUM THREADS   =        1
   VECS WRITE    =       no      NUM VECS WRITE =        0
   FILTER GUESS  =       no      SF RESTRICT  =       no
   OPDM          =       no      TRANS DENSITY=       no

   FILES         =  50 51 52 53

   EX ALLOW      =  1  1 
   STATE AVERAGE =  1(1.00) 
   STATE AVERAGE =  1(1.00) 

ORBITALS:
   NMO          =       25      NUM ALP      =        5
   ORBS IN CI   =       25      NUM ALP EXPL =        5
   FROZEN CORE  =        0      NUM BET      =        5
   RESTR CORE   =        0      NUM BET EXPL =        5
   IOPEN        =       no
   RAS1 LVL     =        4      A RAS3 MAX   =        2
   RAS1 MIN     =        8      B RAS3 MAX   =        2
   A RAS1 LVL   =        4      RAS4 LVL     =       25
   A RAS1 MIN   =        3      A RAS4 MAX   =        0
   A RAS1 MAX   =        5      B RAS4 MAX   =        0
   B RAS1 LVL   =        4      RAS4 MAX     =        0
   B RAS1 MIN   =        3      A RAS34 MAX  =        2
   B RAS1 MAX   =        5      B RAS34 MAX  =        2
   RAS3 LVL     =        5      RAS34 MAX    =        2
   RAS3 MAX     =        2

   DOCC         =  3  0  1  1 
   SOCC         =  0  0  0  0 
   FROZEN DOCC  =  0  0  0  0 
   FROZEN UOCC  =  0  0  0  0 
   RAS 1        =  3  0  1  1 
   RAS 2        =  0  0  0  0 
   RAS 3        =  9  2  3  6 
   RAS 4        =  0  0  0  0 
*******************************************************


There are 2001 alpha strings
There are 2001 beta strings
CI space contains    9 blocks

CI space requires 3831 determinants

Check SCF Energy from 1- and 2-electron integrals

SCF Energy (ref):            -76.0170322950
Nuclear repulsion energy:      8.7942773879
One-electron energy:        -122.3698336609
Two-electron energy:          37.5585239780
Frozen core energy:            0.0000000000
Total electronic energy:     -84.8113096830
Total SCF energy:            -76.0170322950

 CI vector/subblock length = 3831

*** H0 Block Eigenvalue = -76.12745011

Find the roots by the Simultaneous Expansion Method (Block Davidson Method)
Energy convergence = 1e-06
RMS CI vector convergence = 0.0001

Using 1 initial trial vectors
Iter  0  Root  1 = -76.127450107   Delta_E -8.492E+01   Delta_C  7.303E-01  
Iter  1  Root  1 = -76.218367442   Delta_E -9.092E-02   Delta_C  7.059E-02  
Iter  2  Root  1 = -76.219510357   Delta_E -1.143E-03   Delta_C  2.165E-02  
Iter  3  Root  1 = -76.219655712   Delta_E -1.454E-04   Delta_C  6.439E-03  
Iter  4  Root  1 = -76.219667667   Delta_E -1.196E-05   Delta_C  1.754E-03  
Iter  5  Root  1 = -76.219668848   Delta_E -1.181E-06   Delta_C  5.479E-04  
Iter  6  Root  1 = -76.219668939   Delta_E -9.103E-08   Delta_C  1.544E-04  
Iter  7  Root  1 = -76.219668944   Delta_E -5.345E-09   Delta_C  2.891E-05 c

* ROOT 1 CI total energy = -76.2196689440391


The 20 most important determinants

    1   -0.973566  (  475,  475)  1A1X  2A1X  3A1X  1B1X  1B2X  
    2    0.047864  (  503,  503)  1A1X  2A1X  3A1X  1B2X  2B1X  
    3    0.038963  (  506,  506)  1A1X  2A1X  3A1X  1B1X  2B2X  
    4    0.031667  (  482,  482)  1A1X  2A1X  1B1X  1B2X  6A1X  
    5    0.027063  (  507,  507)  1A1X  2A1X  3A1X  1B1X  3B2X  
    6    0.025558  (  482,  503)  1A1X  2A1X  3A1B  1B1A  1B2X  6A1A  2B1B  
    7    0.025558  (  503,  482)  1A1X  2A1X  3A1A  1B1B  1B2X  6A1B  2B1A  
    8   -0.022983  (  503,  508)  1A1X  2A1X  3A1X  1B1B  1B2A  2B1A  4B2B  
    9   -0.022983  (  508,  503)  1A1X  2A1X  3A1X  1B1A  1B2B  2B1B  4B2A  
   10   -0.022890  (  503,  506)  1A1X  2A1X  3A1X  1B1B  1B2A  2B1A  2B2B  
   11   -0.022890  (  506,  503)  1A1X  2A1X  3A1X  1B1A  1B2B  2B1B  2B2A  
   12    0.022730  (  476,  476)  1A1X  2A1X  1B1X  1B2X  4A1X  
   13    0.022714  ( 1011, 1011)  1A1X  2A1X  3A1X  1B1X  5A1X  
   14    0.022686  (  508,  508)  1A1X  2A1X  3A1X  1B1X  4B2X  
   15    0.021988  (  506,  508)  1A1X  2A1X  3A1X  1B1X  2B2A  4B2B  
   16    0.021988  (  508,  506)  1A1X  2A1X  3A1X  1B1X  2B2B  4B2A  
   17   -0.021465  (  476,  506)  1A1X  2A1X  3A1B  1B1X  1B2A  4A1A  2B2B  
   18   -0.021465  (  506,  476)  1A1X  2A1X  3A1A  1B1X  1B2B  4A1B  2B2A  
   19    0.020567  ( 1024, 1024)  1A1X  2A1X  1B1X  1B2X  3B2X  
   20    0.018804  ( 1010, 1010)  1A1X  2A1X  3A1X  1B1X  4A1X  




        Total Time (s)     %Time 		%Relative
 -----------------------------------------------------
 Read      0.003550
 Write     0.001743
 Sigma1    0.000308
 Sigma2    0.078186
 Sigma3    0.070738
 S1 Thread 0.000000
 S2 Thread 0.000000
 S3 Thread 0.000000

		 "A good bug is a dead bug" 

			 - Starship Troopers

		 "I didn't write FORTRAN.  That's the problem."

			 - Edward Valeev


*** tstop() called on lawn-143-215-103-161.lawn.gatech.edu at Fri Apr 27 14:06:00 2012
Module time:
	user time   =       0.57 seconds =       0.01 minutes
	system time =       0.02 seconds =       0.00 minutes
	total time  =          1 seconds =       0.02 minutes
Total time:
	user time   =       0.64 seconds =       0.01 minutes
	system time =       0.04 seconds =       0.00 minutes
	total time  =          1 seconds =       0.02 minutes

  //>>>>>>>>>>>>>>>>>>>>>>>>>>>>>>>>>>>//
  //    Loading displacement 2 of 5    //
  //<<<<<<<<<<<<<<<<<<<<<<<<<<<<<<<<<<<//

*** tstart() called on lawn-143-215-103-161.lawn.gatech.edu
*** at Fri Apr 27 14:06:00 2012

	There are an even number of electrons - assuming singlet.
	Specify the multiplicity with the MULTP option in the
	input if this is incorrect


         ---------------------------------------------------------
                                   SCF
            by Justin Turney, Rob Parrish, and Andy Simmonett
                              RHF Reference
                        1 Threads,    250 MiB Core
         ---------------------------------------------------------

  ==> Geometry <==

    Molecular point group: c2v

    Geometry (in Angstrom), charge = 0, multiplicity = 1:

       Center              X                  Y                   Z       
    ------------   -----------------  -----------------  -----------------
           O          0.000000000000     0.000000000000    -0.069370865650
           H          0.000000000000    -0.783151105291     0.550482989532
           H          0.000000000000     0.783151105291     0.550482989532

  Running in c2v symmetry.

  Nuclear repulsion =    8.815101148035453

  Charge       = 0
  Multiplicity = 1
  Electrons    = 10
  Nalpha       = 5
  Nbeta        = 5

  ==> Algorithm <==

  SCF Algorithm Type is PK.
  DIIS enabled.
  MOM disabled.
  Fractional occupation disabled.
  Guess Type is CORE.
  Energy threshold   = 1.00e-08
  Density threshold  = 1.00e-08
  Integral threshold = 0.00e+00

  ==> Primary Basis <==

  Basis Set: 6-31G**
    Number of shells: 12
    Number of basis function: 25
    Number of Cartesian functions: 25
    Spherical Harmonics?: false
    Max angular momentum: 2

  ==> Pre-Iterations <==

  Minimum eigenvalue in the overlap matrix is 2.3322323658E-02.
  Using Symmetric Orthogonalization.
  SCF Guess: Core (One-Electron) Hamiltonian.

  Initial RHF energy:   -58.75634643554858

   -------------------------------------------------------
    Irrep   Nso     Nmo     Nalpha   Nbeta   Ndocc  Nsocc
   -------------------------------------------------------
     A1        12      12       3       3       3       0
     A2         2       2       0       0       0       0
     B1         4       4       1       1       1       0
     B2         7       7       1       1       1       0
   -------------------------------------------------------
    Total      25      25       5       5       5       0
   -------------------------------------------------------

  ==> Integral Setup <==

 MINTS: Wrapper to libmints.
   by Justin Turney

   Calculation information:
      Number of atoms:                   3
      Number of AO shells:              12
      Number of SO shells:               9
      Number of primitives:             25
      Number of atomic orbitals:        25
      Number of basis functions:        25

      Number of irreps:                  4
      Number of functions per irrep: [  12    2    4    7 ]

      Overlap, kinetic, potential, dipole, and quadrupole integrals
        stored in file 35.

      Computing two-electron integrals...done
      Computed 13617 non-zero two-electron integrals.
        Stored in file 33.

  ==> Iterations <==

                        Total Energy        Delta E     Density RMS

   @RHF iter   1:   -68.35306569052372   -9.59672e+00   0.00000e+00 
	Occupation by irrep:
	         A1    A2    B1    B2 
	DOCC [     4,    0,    0,    1 ]

   @RHF iter   2:   -71.39995960172678   -3.04689e+00   5.04346e-01 DIIS
	Occupation by irrep:
	         A1    A2    B1    B2 
	DOCC [     3,    0,    1,    1 ]

   @RHF iter   3:   -75.77195251214275   -4.37199e+00   4.77663e-01 DIIS
   @RHF iter   4:   -76.00035112430895   -2.28399e-01   1.67767e-02 DIIS
   @RHF iter   5:   -76.01708218952847   -1.67311e-02   7.80453e-03 DIIS
   @RHF iter   6:   -76.01750763157651   -4.25442e-04   1.27684e-03 DIIS
   @RHF iter   7:   -76.01755321526575   -4.55837e-05   5.66610e-04 DIIS
   @RHF iter   8:   -76.01755476457720   -1.54931e-06   9.30166e-05 DIIS
   @RHF iter   9:   -76.01755486409347   -9.95163e-08   2.87758e-05 DIIS
   @RHF iter  10:   -76.01755486658756   -2.49409e-09   4.37990e-06 DIIS
   @RHF iter  11:   -76.01755486660541   -1.78488e-11   2.92081e-07 DIIS
   @RHF iter  12:   -76.01755486660583   -4.26326e-13   5.40648e-08 DIIS

  ==> Post-Iterations <==

	Orbital Energies (a.u.)
	-----------------------

	Doubly Occupied:                                                      

	   1A1   -20.568677     2A1    -1.321031     1B2    -0.679645  
	   3A1    -0.563793     1B1    -0.494997  

	Virtual:                                                              

	   4A1     0.202761     2B2     0.293112     3B2     0.982242  
	   5A1     1.056741     6A1     1.129349     2B1     1.168705  
	   4B2     1.294977     7A1     1.413004     1A2     1.802549  
	   8A1     1.808241     3B1     1.919505     9A1     2.514799  
	   5B2     2.538103     6B2     2.716403     2A2     2.923531  
	   4B1     2.947841    10A1     3.294546    11A1     3.623008  
	   7B2     3.875687    12A1     4.078997  

	Final Occupation by Irrep:
	         A1    A2    B1    B2 
	DOCC [     3,    0,    1,    1 ]

  Energy converged.

  @RHF Final Energy:   -76.01755486660583

   => Energetics <=

    Nuclear Repulsion Energy =          8.8151011480354526
    One-Electron Energy =            -122.4090273182648900
    Two-Electron Energy =              37.5763713036235885
    DFT Functional Energy =             0.0000000000000000
    Empirical Dispersion Energy =       0.0000000000000000
    Total Energy =                    -76.0175548666058489

  ==> Properties <==

  Nuclear Dipole Moment: (a.u.)
     X:     0.0000      Y:     0.0000      Z:     1.0318

  Electronic Dipole Moment: (a.u.)
     X:     0.0000      Y:     0.0000      Z:    -0.1515

  Dipole Moment: (a.u.)
     X:     0.0000      Y:     0.0000      Z:     0.8803     Total:     0.8803

  Dipole Moment: (Debye)
     X:     0.0000      Y:     0.0000      Z:     2.2376     Total:     2.2376


  Saving occupied orbitals to File 180.

*** tstop() called on lawn-143-215-103-161.lawn.gatech.edu at Fri Apr 27 14:06:00 2012
Module time:
	user time   =       0.07 seconds =       0.00 minutes
	system time =       0.01 seconds =       0.00 minutes
	total time  =          0 seconds =       0.00 minutes
Total time:
	user time   =       0.71 seconds =       0.01 minutes
	system time =       0.05 seconds =       0.00 minutes
	total time  =          1 seconds =       0.02 minutes

*** tstart() called on lawn-143-215-103-161.lawn.gatech.edu
*** at Fri Apr 27 14:06:00 2012


	**************************************************
	* TRANSQT2: Program to transform integrals from  *
	*           the SO basis to the MO basis.        *
	*                                                *
	*            Daniel, David, & Justin             *
	**************************************************


	Input parameters:
	-----------------
	Wave function   =	DETCI
	Backtransform   =	No
	Print Level     =	1
	Print TEIs      =	No
	Reference wfn   =	RHF
	Derivative      =	None
	Delete TEI File =	Yes
	Memory (Mbytes) =	250.0
	Cache Level     =	2
	Cache Type      =	LRU
	Chkpt Parameters:
	--------------------
	Number of irreps     = 4
	Number of SOs        = 25
	Number of MOs        = 25
	Number of active MOs = 25

	Label	# SOs	# FZDC	# DOCC	# SOCC	# VIRT	# FZVR
	-----	-----	------	------	------	------	------
	 A1	   12	    0	    3	    0	    9	    0
	 A2	   2	    0	    0	    0	    2	    0
	 B1	   4	    0	    1	    0	    3	    0
	 B2	   7	    0	    1	    0	    6	    0

	Nuclear Rep. energy (chkpt) =      8.81510114803545
	SCF energy          (chkpt) =    -76.01755486660583

	Presorting SO-basis two-electron integrals.
	Sorting File: SO Ints (pq,rs) nbuckets = 1
	Frozen-core energy =    0.000000000000000
	Starting first half-transformation.
	Sorting half-transformed integrals.
	Starting second half-transformation.
	Two-electron integral transformation complete.

*** tstop() called on lawn-143-215-103-161.lawn.gatech.edu at Fri Apr 27 14:06:00 2012
Module time:
	user time   =       0.01 seconds =       0.00 minutes
	system time =       0.01 seconds =       0.00 minutes
	total time  =          0 seconds =       0.00 minutes
Total time:
	user time   =       0.72 seconds =       0.01 minutes
	system time =       0.06 seconds =       0.00 minutes
	total time  =          1 seconds =       0.02 minutes

*** tstart() called on lawn-143-215-103-161.lawn.gatech.edu
*** at Fri Apr 27 14:06:00 2012


*******************************************************
                       D E T C I  

                   C. David Sherrill
                   Matt L. Leininger
                     18 June 1999
*******************************************************




PARAMETERS: 
   EX LEVEL      =        2      H0 BLOCKSIZE =      400
   VAL EX LEVEL  =        0      H0 GUESS SIZE=      400
   H0COUPLINGSIZE=        0      H0 COUPLING  =       no
   NUM PRINT     =       20
   MAXITER       =       12      FREEZE CORE  =      yes
   NUM ROOTS     =        1      ICORE        =        1
   PRINT         =        1      FCI          =       no
   R CONV        =   1.00e-04      MIXED        =      yes
   E CONV        =   1.00e-06      MIXED4       =      yes
   OEI FILE      =       35      R4S          =       no
   REPL OTF      =       no
   TEI FILE      =       72      DIAG METHOD  =      SEM
   PRECONDITIONER= DAVIDSON      UPDATE       =   DAVIDSON
   S             =   0.0000      Ms0          =      yes
   MAX NUM VECS  =       13
   RESTART       =       no
   GUESS VECTOR  =  H0BLOCK      OPENTYPE     =     NONE
   REF SYM       =     auto
   COLLAPSE SIZE =        1      HD AVG       = EVANGELISTI
   LSE           =       no      LSE ITER     =        0
   HD OTF        =      yes      NO DFILE     =       no
   MPN           =       no      MPN SCHMIDT  =       no
   ZAPTN         =       no      MPN WIGNER   =       no
   PERT Z        =   1.0000    FOLLOW ROOT  =        0
   NUM THREADS   =        1
   VECS WRITE    =       no      NUM VECS WRITE =        0
   FILTER GUESS  =       no      SF RESTRICT  =       no
   OPDM          =       no      TRANS DENSITY=       no

   FILES         =  50 51 52 53

   EX ALLOW      =  1  1 
   STATE AVERAGE =  1(1.00) 
   STATE AVERAGE =  1(1.00) 

ORBITALS:
   NMO          =       25      NUM ALP      =        5
   ORBS IN CI   =       25      NUM ALP EXPL =        5
   FROZEN CORE  =        0      NUM BET      =        5
   RESTR CORE   =        0      NUM BET EXPL =        5
   IOPEN        =       no
   RAS1 LVL     =        4      A RAS3 MAX   =        2
   RAS1 MIN     =        8      B RAS3 MAX   =        2
   A RAS1 LVL   =        4      RAS4 LVL     =       25
   A RAS1 MIN   =        3      A RAS4 MAX   =        0
   A RAS1 MAX   =        5      B RAS4 MAX   =        0
   B RAS1 LVL   =        4      RAS4 MAX     =        0
   B RAS1 MIN   =        3      A RAS34 MAX  =        2
   B RAS1 MAX   =        5      B RAS34 MAX  =        2
   RAS3 LVL     =        5      RAS34 MAX    =        2
   RAS3 MAX     =        2

   DOCC         =  3  0  1  1 
   SOCC         =  0  0  0  0 
   FROZEN DOCC  =  0  0  0  0 
   FROZEN UOCC  =  0  0  0  0 
   RAS 1        =  3  0  1  1 
   RAS 2        =  0  0  0  0 
   RAS 3        =  9  2  3  6 
   RAS 4        =  0  0  0  0 
*******************************************************


There are 2001 alpha strings
There are 2001 beta strings
CI space contains    9 blocks

CI space requires 3831 determinants

Check SCF Energy from 1- and 2-electron integrals

SCF Energy (ref):            -76.0175548666
Nuclear repulsion energy:      8.8151011480
One-electron energy:        -122.4090276355
Two-electron energy:          37.5763716209
Frozen core energy:            0.0000000000
Total electronic energy:     -84.8326560146
Total SCF energy:            -76.0175548666

*** H0 Block Eigenvalue = -76.12765303

Find the roots by the Simultaneous Expansion Method (Block Davidson Method)
Energy convergence = 1e-06
RMS CI vector convergence = 0.0001

Using 1 initial trial vectors
Iter  0  Root  1 = -76.127653026   Delta_E -8.494E+01   Delta_C  7.312E-01  
Iter  1  Root  1 = -76.218719229   Delta_E -9.107E-02   Delta_C  7.065E-02  
Iter  2  Root  1 = -76.219862340   Delta_E -1.143E-03   Delta_C  2.162E-02  
Iter  3  Root  1 = -76.220007157   Delta_E -1.448E-04   Delta_C  6.426E-03  
Iter  4  Root  1 = -76.220019053   Delta_E -1.190E-05   Delta_C  1.749E-03  
Iter  5  Root  1 = -76.220020227   Delta_E -1.173E-06   Delta_C  5.455E-04  
Iter  6  Root  1 = -76.220020317   Delta_E -9.020E-08   Delta_C  1.537E-04  
Iter  7  Root  1 = -76.220020322   Delta_E -5.279E-09   Delta_C  2.874E-05 c

* ROOT 1 CI total energy = -76.2200203220726


The 20 most important determinants

    1   -0.973649  (  475,  475)  1A1X  2A1X  3A1X  1B1X  1B2X  
    2    0.047871  (  503,  503)  1A1X  2A1X  3A1X  1B2X  2B1X  
    3    0.038588  (  506,  506)  1A1X  2A1X  3A1X  1B1X  2B2X  
    4    0.031791  (  482,  482)  1A1X  2A1X  1B1X  1B2X  6A1X  
    5    0.027075  (  507,  507)  1A1X  2A1X  3A1X  1B1X  3B2X  
    6    0.025620  (  482,  503)  1A1X  2A1X  3A1B  1B1A  1B2X  6A1A  2B1B  
    7    0.025620  (  503,  482)  1A1X  2A1X  3A1A  1B1B  1B2X  6A1B  2B1A  
    8   -0.022969  (  503,  508)  1A1X  2A1X  3A1X  1B1B  1B2A  2B1A  4B2B  
    9   -0.022969  (  508,  503)  1A1X  2A1X  3A1X  1B1A  1B2B  2B1B  4B2A  
   10   -0.022838  (  503,  506)  1A1X  2A1X  3A1X  1B1B  1B2A  2B1A  2B2B  
   11   -0.022838  (  506,  503)  1A1X  2A1X  3A1X  1B1A  1B2B  2B1B  2B2A  
   12    0.022819  ( 1011, 1011)  1A1X  2A1X  3A1X  1B1X  5A1X  
   13    0.022676  (  508,  508)  1A1X  2A1X  3A1X  1B1X  4B2X  
   14    0.022445  (  476,  476)  1A1X  2A1X  1B1X  1B2X  4A1X  
   15    0.021930  (  506,  508)  1A1X  2A1X  3A1X  1B1X  2B2A  4B2B  
   16    0.021930  (  508,  506)  1A1X  2A1X  3A1X  1B1X  2B2B  4B2A  
   17   -0.021183  (  476,  506)  1A1X  2A1X  3A1B  1B1X  1B2A  4A1A  2B2B  
   18   -0.021183  (  506,  476)  1A1X  2A1X  3A1A  1B1X  1B2B  4A1B  2B2A  
   19    0.020591  ( 1024, 1024)  1A1X  2A1X  1B1X  1B2X  3B2X  
*  20    0.018712  (  488,  488)  1A1X  2A1X  1B1X  1B2X  8A1X  




        Total Time (s)     %Time 		%Relative
 -----------------------------------------------------
 Read      0.007029
 Write     0.002762
 Sigma1    0.000618
 Sigma2    0.162938
 Sigma3    0.143913
 S1 Thread 0.000000
 S2 Thread 0.000000
 S3 Thread 0.000000

		 "A good bug is a dead bug" 

			 - Starship Troopers

		 "I didn't write FORTRAN.  That's the problem."

			 - Edward Valeev


*** tstop() called on lawn-143-215-103-161.lawn.gatech.edu at Fri Apr 27 14:06:01 2012
Module time:
	user time   =       0.57 seconds =       0.01 minutes
	system time =       0.02 seconds =       0.00 minutes
	total time  =          1 seconds =       0.02 minutes
Total time:
	user time   =       1.29 seconds =       0.02 minutes
	system time =       0.08 seconds =       0.00 minutes
	total time  =          2 seconds =       0.03 minutes

  //>>>>>>>>>>>>>>>>>>>>>>>>>>>>>>>>>>>//
  //    Loading displacement 3 of 5    //
  //<<<<<<<<<<<<<<<<<<<<<<<<<<<<<<<<<<<//

*** tstart() called on lawn-143-215-103-161.lawn.gatech.edu
*** at Fri Apr 27 14:06:01 2012

	There are an even number of electrons - assuming singlet.
	Specify the multiplicity with the MULTP option in the
	input if this is incorrect


         ---------------------------------------------------------
                                   SCF
            by Justin Turney, Rob Parrish, and Andy Simmonett
                              RHF Reference
                        1 Threads,    250 MiB Core
         ---------------------------------------------------------

  ==> Geometry <==

    Molecular point group: c2v

    Geometry (in Angstrom), charge = 0, multiplicity = 1:

       Center              X                  Y                   Z       
    ------------   -----------------  -----------------  -----------------
           O          0.000000000000     0.000000000000    -0.069592187390
           H          0.000000000000    -0.785014751915     0.552239257844
           H          0.000000000000     0.785014751915     0.552239257844

  Running in c2v symmetry.

  Nuclear repulsion =    8.791539410090559

  Charge       = 0
  Multiplicity = 1
  Electrons    = 10
  Nalpha       = 5
  Nbeta        = 5

  ==> Algorithm <==

  SCF Algorithm Type is PK.
  DIIS enabled.
  MOM disabled.
  Fractional occupation disabled.
  Guess Type is CORE.
  Energy threshold   = 1.00e-08
  Density threshold  = 1.00e-08
  Integral threshold = 0.00e+00

  ==> Primary Basis <==

  Basis Set: 6-31G**
    Number of shells: 12
    Number of basis function: 25
    Number of Cartesian functions: 25
    Spherical Harmonics?: false
    Max angular momentum: 2

  ==> Pre-Iterations <==

  Minimum eigenvalue in the overlap matrix is 2.3415405999E-02.
  Using Symmetric Orthogonalization.
  SCF Guess: Core (One-Electron) Hamiltonian.

  Initial RHF energy:   -58.76354207887950

   -------------------------------------------------------
    Irrep   Nso     Nmo     Nalpha   Nbeta   Ndocc  Nsocc
   -------------------------------------------------------
     A1        12      12       3       3       3       0
     A2         2       2       0       0       0       0
     B1         4       4       1       1       1       0
     B2         7       7       1       1       1       0
   -------------------------------------------------------
    Total      25      25       5       5       5       0
   -------------------------------------------------------

  ==> Integral Setup <==

 MINTS: Wrapper to libmints.
   by Justin Turney

   Calculation information:
      Number of atoms:                   3
      Number of AO shells:              12
      Number of SO shells:               9
      Number of primitives:             25
      Number of atomic orbitals:        25
      Number of basis functions:        25

      Number of irreps:                  4
      Number of functions per irrep: [  12    2    4    7 ]

      Overlap, kinetic, potential, dipole, and quadrupole integrals
        stored in file 35.

      Computing two-electron integrals...done
      Computed 13617 non-zero two-electron integrals.
        Stored in file 33.

  ==> Iterations <==

                        Total Energy        Delta E     Density RMS

   @RHF iter   1:   -68.35780734825944   -9.59427e+00   0.00000e+00 
	Occupation by irrep:
	         A1    A2    B1    B2 
	DOCC [     4,    0,    0,    1 ]

   @RHF iter   2:   -71.39879097416141   -3.04098e+00   5.02772e-01 DIIS
	Occupation by irrep:
	         A1    A2    B1    B2 
	DOCC [     3,    0,    1,    1 ]

   @RHF iter   3:   -75.77196474148823   -4.37317e+00   4.76008e-01 DIIS
   @RHF iter   4:   -75.99979604033064   -2.27831e-01   1.67545e-02 DIIS
   @RHF iter   5:   -76.01652027717054   -1.67242e-02   7.81249e-03 DIIS
   @RHF iter   6:   -76.01695036938615   -4.30092e-04   1.28117e-03 DIIS
   @RHF iter   7:   -76.01699672436594   -4.63550e-05   5.70618e-04 DIIS
   @RHF iter   8:   -76.01699831465984   -1.59029e-06   9.39357e-05 DIIS
   @RHF iter   9:   -76.01699841746041   -1.02801e-07   2.92705e-05 DIIS
   @RHF iter  10:   -76.01699842005516   -2.59475e-09   4.44484e-06 DIIS
   @RHF iter  11:   -76.01699842007464   -1.94831e-11   3.05292e-07 DIIS
   @RHF iter  12:   -76.01699842007513   -4.83169e-13   5.55363e-08 DIIS

  ==> Post-Iterations <==

	Orbital Energies (a.u.)
	-----------------------

	Doubly Occupied:                                                      

	   1A1   -20.569175     2A1    -1.319829     1B2    -0.678223  
	   3A1    -0.563400     1B1    -0.494863  

	Virtual:                                                              

	   4A1     0.202138     2B2     0.292320     3B2     0.981059  
	   5A1     1.054705     6A1     1.129243     2B1     1.168669  
	   4B2     1.295069     7A1     1.412816     1A2     1.802501  
	   8A1     1.807997     3B1     1.919318     9A1     2.511112  
	   5B2     2.535560     6B2     2.710517     2A2     2.920117  
	   4B1     2.944839    10A1     3.289209    11A1     3.617931  
	   7B2     3.872860    12A1     4.077508  

	Final Occupation by Irrep:
	         A1    A2    B1    B2 
	DOCC [     3,    0,    1,    1 ]

  Energy converged.

  @RHF Final Energy:   -76.01699842007513

   => Energetics <=

    Nuclear Repulsion Energy =          8.7915394100905591
    One-Electron Energy =            -122.3660953043507789
    Two-Electron Energy =              37.5575574741850886
    DFT Functional Energy =             0.0000000000000000
    Empirical Dispersion Energy =       0.0000000000000000
    Total Energy =                    -76.0169984200751259

  ==> Properties <==

  Nuclear Dipole Moment: (a.u.)
     X:     0.0000      Y:     0.0000      Z:     1.0351

  Electronic Dipole Moment: (a.u.)
     X:     0.0000      Y:     0.0000      Z:    -0.1537

  Dipole Moment: (a.u.)
     X:     0.0000      Y:     0.0000      Z:     0.8814     Total:     0.8814

  Dipole Moment: (Debye)
     X:     0.0000      Y:     0.0000      Z:     2.2402     Total:     2.2402


  Saving occupied orbitals to File 180.

*** tstop() called on lawn-143-215-103-161.lawn.gatech.edu at Fri Apr 27 14:06:01 2012
Module time:
	user time   =       0.06 seconds =       0.00 minutes
	system time =       0.01 seconds =       0.00 minutes
	total time  =          0 seconds =       0.00 minutes
Total time:
	user time   =       1.35 seconds =       0.02 minutes
	system time =       0.09 seconds =       0.00 minutes
	total time  =          2 seconds =       0.03 minutes

*** tstart() called on lawn-143-215-103-161.lawn.gatech.edu
*** at Fri Apr 27 14:06:01 2012


	**************************************************
	* TRANSQT2: Program to transform integrals from  *
	*           the SO basis to the MO basis.        *
	*                                                *
	*            Daniel, David, & Justin             *
	**************************************************


	Input parameters:
	-----------------
	Wave function   =	DETCI
	Backtransform   =	No
	Print Level     =	1
	Print TEIs      =	No
	Reference wfn   =	RHF
	Derivative      =	None
	Delete TEI File =	Yes
	Memory (Mbytes) =	250.0
	Cache Level     =	2
	Cache Type      =	LRU
	Chkpt Parameters:
	--------------------
	Number of irreps     = 4
	Number of SOs        = 25
	Number of MOs        = 25
	Number of active MOs = 25

	Label	# SOs	# FZDC	# DOCC	# SOCC	# VIRT	# FZVR
	-----	-----	------	------	------	------	------
	 A1	   12	    0	    3	    0	    9	    0
	 A2	   2	    0	    0	    0	    2	    0
	 B1	   4	    0	    1	    0	    3	    0
	 B2	   7	    0	    1	    0	    6	    0

	Nuclear Rep. energy (chkpt) =      8.79153941009056
	SCF energy          (chkpt) =    -76.01699842007513

	Presorting SO-basis two-electron integrals.
	Sorting File: SO Ints (pq,rs) nbuckets = 1
	Frozen-core energy =    0.000000000000000
	Starting first half-transformation.
	Sorting half-transformed integrals.
	Starting second half-transformation.
	Two-electron integral transformation complete.

*** tstop() called on lawn-143-215-103-161.lawn.gatech.edu at Fri Apr 27 14:06:01 2012
Module time:
	user time   =       0.01 seconds =       0.00 minutes
	system time =       0.01 seconds =       0.00 minutes
	total time  =          0 seconds =       0.00 minutes
Total time:
	user time   =       1.36 seconds =       0.02 minutes
	system time =       0.10 seconds =       0.00 minutes
	total time  =          2 seconds =       0.03 minutes

*** tstart() called on lawn-143-215-103-161.lawn.gatech.edu
*** at Fri Apr 27 14:06:01 2012


*******************************************************
                       D E T C I  

                   C. David Sherrill
                   Matt L. Leininger
                     18 June 1999
*******************************************************




PARAMETERS: 
   EX LEVEL      =        2      H0 BLOCKSIZE =      400
   VAL EX LEVEL  =        0      H0 GUESS SIZE=      400
   H0COUPLINGSIZE=        0      H0 COUPLING  =       no
   NUM PRINT     =       20
   MAXITER       =       12      FREEZE CORE  =      yes
   NUM ROOTS     =        1      ICORE        =        1
   PRINT         =        1      FCI          =       no
   R CONV        =   1.00e-04      MIXED        =      yes
   E CONV        =   1.00e-06      MIXED4       =      yes
   OEI FILE      =       35      R4S          =       no
   REPL OTF      =       no
   TEI FILE      =       72      DIAG METHOD  =      SEM
   PRECONDITIONER= DAVIDSON      UPDATE       =   DAVIDSON
   S             =   0.0000      Ms0          =      yes
   MAX NUM VECS  =       13
   RESTART       =       no
   GUESS VECTOR  =  H0BLOCK      OPENTYPE     =     NONE
   REF SYM       =     auto
   COLLAPSE SIZE =        1      HD AVG       = EVANGELISTI
   LSE           =       no      LSE ITER     =        0
   HD OTF        =      yes      NO DFILE     =       no
   MPN           =       no      MPN SCHMIDT  =       no
   ZAPTN         =       no      MPN WIGNER   =       no
   PERT Z        =   1.0000    FOLLOW ROOT  =        0
   NUM THREADS   =        1
   VECS WRITE    =       no      NUM VECS WRITE =        0
   FILTER GUESS  =       no      SF RESTRICT  =       no
   OPDM          =       no      TRANS DENSITY=       no

   FILES         =  50 51 52 53

   EX ALLOW      =  1  1 
   STATE AVERAGE =  1(1.00) 
   STATE AVERAGE =  1(1.00) 

ORBITALS:
   NMO          =       25      NUM ALP      =        5
   ORBS IN CI   =       25      NUM ALP EXPL =        5
   FROZEN CORE  =        0      NUM BET      =        5
   RESTR CORE   =        0      NUM BET EXPL =        5
   IOPEN        =       no
   RAS1 LVL     =        4      A RAS3 MAX   =        2
   RAS1 MIN     =        8      B RAS3 MAX   =        2
   A RAS1 LVL   =        4      RAS4 LVL     =       25
   A RAS1 MIN   =        3      A RAS4 MAX   =        0
   A RAS1 MAX   =        5      B RAS4 MAX   =        0
   B RAS1 LVL   =        4      RAS4 MAX     =        0
   B RAS1 MIN   =        3      A RAS34 MAX  =        2
   B RAS1 MAX   =        5      B RAS34 MAX  =        2
   RAS3 LVL     =        5      RAS34 MAX    =        2
   RAS3 MAX     =        2

   DOCC         =  3  0  1  1 
   SOCC         =  0  0  0  0 
   FROZEN DOCC  =  0  0  0  0 
   FROZEN UOCC  =  0  0  0  0 
   RAS 1        =  3  0  1  1 
   RAS 2        =  0  0  0  0 
   RAS 3        =  9  2  3  6 
   RAS 4        =  0  0  0  0 
*******************************************************


There are 2001 alpha strings
There are 2001 beta strings
CI space contains    9 blocks

CI space requires 3831 determinants

Check SCF Energy from 1- and 2-electron integrals

SCF Energy (ref):            -76.0169984201
Nuclear repulsion energy:      8.7915394101
One-electron energy:        -122.3660956116
Two-electron energy:          37.5575577814
Frozen core energy:            0.0000000000
Total electronic energy:     -84.8085378302
Total SCF energy:            -76.0169984201

*** H0 Block Eigenvalue = -76.12742329

Find the roots by the Simultaneous Expansion Method (Block Davidson Method)
Energy convergence = 1e-06
RMS CI vector convergence = 0.0001

Using 1 initial trial vectors
Iter  0  Root  1 = -76.127423287   Delta_E -8.492E+01   Delta_C  7.302E-01  
Iter  1  Root  1 = -76.218325100   Delta_E -9.090E-02   Delta_C  7.058E-02  
Iter  2  Root  1 = -76.219467738   Delta_E -1.143E-03   Delta_C  2.165E-02  
Iter  3  Root  1 = -76.219613071   Delta_E -1.453E-04   Delta_C  6.439E-03  
Iter  4  Root  1 = -76.219625035   Delta_E -1.196E-05   Delta_C  1.756E-03  
Iter  5  Root  1 = -76.219626220   Delta_E -1.184E-06   Delta_C  5.490E-04  
Iter  6  Root  1 = -76.219626311   Delta_E -9.139E-08   Delta_C  1.548E-04  
Iter  7  Root  1 = -76.219626316   Delta_E -5.366E-09   Delta_C  2.897E-05 c

* ROOT 1 CI total energy = -76.2196263162765


The 20 most important determinants

    1    0.973566  (  475,  475)  1A1X  2A1X  3A1X  1B1X  1B2X  
    2   -0.047867  (  503,  503)  1A1X  2A1X  3A1X  1B2X  2B1X  
    3   -0.038904  (  506,  506)  1A1X  2A1X  3A1X  1B1X  2B2X  
    4   -0.031917  (  482,  482)  1A1X  2A1X  1B1X  1B2X  6A1X  
    5   -0.027072  (  507,  507)  1A1X  2A1X  3A1X  1B1X  3B2X  
    6   -0.025689  (  482,  503)  1A1X  2A1X  3A1B  1B1A  1B2X  6A1A  2B1B  
    7   -0.025689  (  503,  482)  1A1X  2A1X  3A1A  1B1B  1B2X  6A1B  2B1A  
    8    0.022959  (  503,  508)  1A1X  2A1X  3A1X  1B1B  1B2A  2B1A  4B2B  
    9    0.022959  (  508,  503)  1A1X  2A1X  3A1X  1B1A  1B2B  2B1B  4B2A  
   10   -0.022893  ( 1011, 1011)  1A1X  2A1X  3A1X  1B1X  5A1X  
   11    0.022886  (  503,  506)  1A1X  2A1X  3A1X  1B1B  1B2A  2B1A  2B2B  
   12    0.022886  (  506,  503)  1A1X  2A1X  3A1X  1B1A  1B2B  2B1B  2B2A  
   13   -0.022730  (  476,  476)  1A1X  2A1X  1B1X  1B2X  4A1X  
   14   -0.022650  (  508,  508)  1A1X  2A1X  3A1X  1B1X  4B2X  
   15   -0.021941  (  506,  508)  1A1X  2A1X  3A1X  1B1X  2B2A  4B2B  
   16   -0.021941  (  508,  506)  1A1X  2A1X  3A1X  1B1X  2B2B  4B2A  
   17    0.021439  (  476,  506)  1A1X  2A1X  3A1B  1B1X  1B2A  4A1A  2B2B  
   18    0.021439  (  506,  476)  1A1X  2A1X  3A1A  1B1X  1B2B  4A1B  2B2A  
   19   -0.020560  ( 1024, 1024)  1A1X  2A1X  1B1X  1B2X  3B2X  
   20   -0.018860  ( 1010, 1010)  1A1X  2A1X  3A1X  1B1X  4A1X  




        Total Time (s)     %Time 		%Relative
 -----------------------------------------------------
 Read      0.010643
 Write     0.003814
 Sigma1    0.000952
 Sigma2    0.241937
 Sigma3    0.216156
 S1 Thread 0.000000
 S2 Thread 0.000000
 S3 Thread 0.000000

		 "A good bug is a dead bug" 

			 - Starship Troopers

		 "I didn't write FORTRAN.  That's the problem."

			 - Edward Valeev


*** tstop() called on lawn-143-215-103-161.lawn.gatech.edu at Fri Apr 27 14:06:01 2012
Module time:
	user time   =       0.58 seconds =       0.01 minutes
	system time =       0.02 seconds =       0.00 minutes
	total time  =          0 seconds =       0.00 minutes
Total time:
	user time   =       1.94 seconds =       0.03 minutes
	system time =       0.12 seconds =       0.00 minutes
	total time  =          2 seconds =       0.03 minutes

  //>>>>>>>>>>>>>>>>>>>>>>>>>>>>>>>>>>>//
  //    Loading displacement 4 of 5    //
  //<<<<<<<<<<<<<<<<<<<<<<<<<<<<<<<<<<<//

*** tstart() called on lawn-143-215-103-161.lawn.gatech.edu
*** at Fri Apr 27 14:06:01 2012

	There are an even number of electrons - assuming singlet.
	Specify the multiplicity with the MULTP option in the
	input if this is incorrect


         ---------------------------------------------------------
                                   SCF
            by Justin Turney, Rob Parrish, and Andy Simmonett
                              RHF Reference
                        1 Threads,    250 MiB Core
         ---------------------------------------------------------

  ==> Geometry <==

    Molecular point group: c2v

    Geometry (in Angstrom), charge = 0, multiplicity = 1:

       Center              X                  Y                   Z       
    ------------   -----------------  -----------------  -----------------
           O          0.000000000000     0.000000000000    -0.069592187390
           H          0.000000000000    -0.781287458666     0.552239257844
           H          0.000000000000     0.781287458666     0.552239257844

  Running in c2v symmetry.

  Nuclear repulsion =    8.817862354624557

  Charge       = 0
  Multiplicity = 1
  Electrons    = 10
  Nalpha       = 5
  Nbeta        = 5

  ==> Algorithm <==

  SCF Algorithm Type is PK.
  DIIS enabled.
  MOM disabled.
  Fractional occupation disabled.
  Guess Type is CORE.
  Energy threshold   = 1.00e-08
  Density threshold  = 1.00e-08
  Integral threshold = 0.00e+00

  ==> Primary Basis <==

  Basis Set: 6-31G**
    Number of shells: 12
    Number of basis function: 25
    Number of Cartesian functions: 25
    Spherical Harmonics?: false
    Max angular momentum: 2

  ==> Pre-Iterations <==

  Minimum eigenvalue in the overlap matrix is 2.3307178517E-02.
  Using Symmetric Orthogonalization.
  SCF Guess: Core (One-Electron) Hamiltonian.

  Initial RHF energy:   -58.75513320889238

   -------------------------------------------------------
    Irrep   Nso     Nmo     Nalpha   Nbeta   Ndocc  Nsocc
   -------------------------------------------------------
     A1        12      12       3       3       3       0
     A2         2       2       0       0       0       0
     B1         4       4       1       1       1       0
     B2         7       7       1       1       1       0
   -------------------------------------------------------
    Total      25      25       5       5       5       0
   -------------------------------------------------------

  ==> Integral Setup <==

 MINTS: Wrapper to libmints.
   by Justin Turney

   Calculation information:
      Number of atoms:                   3
      Number of AO shells:              12
      Number of SO shells:               9
      Number of primitives:             25
      Number of atomic orbitals:        25
      Number of basis functions:        25

      Number of irreps:                  4
      Number of functions per irrep: [  12    2    4    7 ]

      Overlap, kinetic, potential, dipole, and quadrupole integrals
        stored in file 35.

      Computing two-electron integrals...done
      Computed 13617 non-zero two-electron integrals.
        Stored in file 33.

  ==> Iterations <==

                        Total Energy        Delta E     Density RMS

   @RHF iter   1:   -68.35193098720408   -9.59680e+00   0.00000e+00 
	Occupation by irrep:
	         A1    A2    B1    B2 
	DOCC [     4,    0,    0,    1 ]

   @RHF iter   2:   -71.39707074295789   -3.04514e+00   5.04425e-01 DIIS
	Occupation by irrep:
	         A1    A2    B1    B2 
	DOCC [     3,    0,    1,    1 ]

   @RHF iter   3:   -75.77143119200825   -4.37436e+00   4.77739e-01 DIIS
   @RHF iter   4:   -76.00032948669643   -2.28898e-01   1.67928e-02 DIIS
   @RHF iter   5:   -76.01711313595156   -1.67836e-02   7.81504e-03 DIIS
   @RHF iter   6:   -76.01753909819108   -4.25962e-04   1.27605e-03 DIIS
   @RHF iter   7:   -76.01758465899971   -4.55608e-05   5.65319e-04 DIIS
   @RHF iter   8:   -76.01758620877807   -1.54978e-06   9.28018e-05 DIIS
   @RHF iter   9:   -76.01758630893016   -1.00152e-07   2.88324e-05 DIIS
   @RHF iter  10:   -76.01758631143309   -2.50293e-09   4.38798e-06 DIIS
   @RHF iter  11:   -76.01758631145121   -1.81188e-11   2.94071e-07 DIIS
   @RHF iter  12:   -76.01758631145171   -4.97380e-13   5.43606e-08 DIIS

  ==> Post-Iterations <==

	Orbital Energies (a.u.)
	-----------------------

	Doubly Occupied:                                                      

	   1A1   -20.568824     2A1    -1.321393     1B2    -0.679224  
	   3A1    -0.564462     1B1    -0.495145  

	Virtual:                                                              

	   4A1     0.202791     2B2     0.293118     3B2     0.981270  
	   5A1     1.057929     6A1     1.129123     2B1     1.168608  
	   4B2     1.294907     7A1     1.414378     1A2     1.803254  
	   8A1     1.805830     3B1     1.918425     9A1     2.515383  
	   5B2     2.540084     6B2     2.716659     2A2     2.922009  
	   4B1     2.950135    10A1     3.294276    11A1     3.623541  
	   7B2     3.876993    12A1     4.077973  

	Final Occupation by Irrep:
	         A1    A2    B1    B2 
	DOCC [     3,    0,    1,    1 ]

  Energy converged.

  @RHF Final Energy:   -76.01758631145171

   => Energetics <=

    Nuclear Repulsion Energy =          8.8178623546245571
    One-Electron Energy =            -122.4128024596762714
    Two-Electron Energy =              37.5773537936000253
    DFT Functional Energy =             0.0000000000000000
    Empirical Dispersion Energy =       0.0000000000000000
    Total Energy =                    -76.0175863114516943

  ==> Properties <==

  Nuclear Dipole Moment: (a.u.)
     X:     0.0000      Y:     0.0000      Z:     1.0351

  Electronic Dipole Moment: (a.u.)
     X:     0.0000      Y:     0.0000      Z:    -0.1527

  Dipole Moment: (a.u.)
     X:     0.0000      Y:     0.0000      Z:     0.8823     Total:     0.8823

  Dipole Moment: (Debye)
     X:     0.0000      Y:     0.0000      Z:     2.2427     Total:     2.2427


  Saving occupied orbitals to File 180.

*** tstop() called on lawn-143-215-103-161.lawn.gatech.edu at Fri Apr 27 14:06:02 2012
Module time:
	user time   =       0.06 seconds =       0.00 minutes
	system time =       0.01 seconds =       0.00 minutes
	total time  =          1 seconds =       0.02 minutes
Total time:
	user time   =       2.00 seconds =       0.03 minutes
	system time =       0.13 seconds =       0.00 minutes
	total time  =          3 seconds =       0.05 minutes

*** tstart() called on lawn-143-215-103-161.lawn.gatech.edu
*** at Fri Apr 27 14:06:02 2012


	**************************************************
	* TRANSQT2: Program to transform integrals from  *
	*           the SO basis to the MO basis.        *
	*                                                *
	*            Daniel, David, & Justin             *
	**************************************************


	Input parameters:
	-----------------
	Wave function   =	DETCI
	Backtransform   =	No
	Print Level     =	1
	Print TEIs      =	No
	Reference wfn   =	RHF
	Derivative      =	None
	Delete TEI File =	Yes
	Memory (Mbytes) =	250.0
	Cache Level     =	2
	Cache Type      =	LRU
	Chkpt Parameters:
	--------------------
	Number of irreps     = 4
	Number of SOs        = 25
	Number of MOs        = 25
	Number of active MOs = 25

	Label	# SOs	# FZDC	# DOCC	# SOCC	# VIRT	# FZVR
	-----	-----	------	------	------	------	------
	 A1	   12	    0	    3	    0	    9	    0
	 A2	   2	    0	    0	    0	    2	    0
	 B1	   4	    0	    1	    0	    3	    0
	 B2	   7	    0	    1	    0	    6	    0

	Nuclear Rep. energy (chkpt) =      8.81786235462456
	SCF energy          (chkpt) =    -76.01758631145171

	Presorting SO-basis two-electron integrals.
	Sorting File: SO Ints (pq,rs) nbuckets = 1
	Frozen-core energy =    0.000000000000000
	Starting first half-transformation.
	Sorting half-transformed integrals.
	Starting second half-transformation.
	Two-electron integral transformation complete.

*** tstop() called on lawn-143-215-103-161.lawn.gatech.edu at Fri Apr 27 14:06:02 2012
Module time:
	user time   =       0.01 seconds =       0.00 minutes
	system time =       0.01 seconds =       0.00 minutes
	total time  =          0 seconds =       0.00 minutes
Total time:
	user time   =       2.01 seconds =       0.03 minutes
	system time =       0.14 seconds =       0.00 minutes
	total time  =          3 seconds =       0.05 minutes

*** tstart() called on lawn-143-215-103-161.lawn.gatech.edu
*** at Fri Apr 27 14:06:02 2012


*******************************************************
                       D E T C I  

                   C. David Sherrill
                   Matt L. Leininger
                     18 June 1999
*******************************************************




PARAMETERS: 
   EX LEVEL      =        2      H0 BLOCKSIZE =      400
   VAL EX LEVEL  =        0      H0 GUESS SIZE=      400
   H0COUPLINGSIZE=        0      H0 COUPLING  =       no
   NUM PRINT     =       20
   MAXITER       =       12      FREEZE CORE  =      yes
   NUM ROOTS     =        1      ICORE        =        1
   PRINT         =        1      FCI          =       no
   R CONV        =   1.00e-04      MIXED        =      yes
   E CONV        =   1.00e-06      MIXED4       =      yes
   OEI FILE      =       35      R4S          =       no
   REPL OTF      =       no
   TEI FILE      =       72      DIAG METHOD  =      SEM
   PRECONDITIONER= DAVIDSON      UPDATE       =   DAVIDSON
   S             =   0.0000      Ms0          =      yes
   MAX NUM VECS  =       13
   RESTART       =       no
   GUESS VECTOR  =  H0BLOCK      OPENTYPE     =     NONE
   REF SYM       =     auto
   COLLAPSE SIZE =        1      HD AVG       = EVANGELISTI
   LSE           =       no      LSE ITER     =        0
   HD OTF        =      yes      NO DFILE     =       no
   MPN           =       no      MPN SCHMIDT  =       no
   ZAPTN         =       no      MPN WIGNER   =       no
   PERT Z        =   1.0000    FOLLOW ROOT  =        0
   NUM THREADS   =        1
   VECS WRITE    =       no      NUM VECS WRITE =        0
   FILTER GUESS  =       no      SF RESTRICT  =       no
   OPDM          =       no      TRANS DENSITY=       no

   FILES         =  50 51 52 53

   EX ALLOW      =  1  1 
   STATE AVERAGE =  1(1.00) 
   STATE AVERAGE =  1(1.00) 

ORBITALS:
   NMO          =       25      NUM ALP      =        5
   ORBS IN CI   =       25      NUM ALP EXPL =        5
   FROZEN CORE  =        0      NUM BET      =        5
   RESTR CORE   =        0      NUM BET EXPL =        5
   IOPEN        =       no
   RAS1 LVL     =        4      A RAS3 MAX   =        2
   RAS1 MIN     =        8      B RAS3 MAX   =        2
   A RAS1 LVL   =        4      RAS4 LVL     =       25
   A RAS1 MIN   =        3      A RAS4 MAX   =        0
   A RAS1 MAX   =        5      B RAS4 MAX   =        0
   B RAS1 LVL   =        4      RAS4 MAX     =        0
   B RAS1 MIN   =        3      A RAS34 MAX  =        2
   B RAS1 MAX   =        5      B RAS34 MAX  =        2
   RAS3 LVL     =        5      RAS34 MAX    =        2
   RAS3 MAX     =        2

   DOCC         =  3  0  1  1 
   SOCC         =  0  0  0  0 
   FROZEN DOCC  =  0  0  0  0 
   FROZEN UOCC  =  0  0  0  0 
   RAS 1        =  3  0  1  1 
   RAS 2        =  0  0  0  0 
   RAS 3        =  9  2  3  6 
   RAS 4        =  0  0  0  0 
*******************************************************


There are 2001 alpha strings
There are 2001 beta strings
CI space contains    9 blocks

CI space requires 3831 determinants

Check SCF Energy from 1- and 2-electron integrals

SCF Energy (ref):            -76.0175863115
Nuclear repulsion energy:      8.8178623546
One-electron energy:        -122.4128027723
Two-electron energy:          37.5773541062
Frozen core energy:            0.0000000000
Total electronic energy:     -84.8354486661
Total SCF energy:            -76.0175863115

*** H0 Block Eigenvalue = -76.12767702

Find the roots by the Simultaneous Expansion Method (Block Davidson Method)
Energy convergence = 1e-06
RMS CI vector convergence = 0.0001

Using 1 initial trial vectors
Iter  0  Root  1 = -76.127677017   Delta_E -8.495E+01   Delta_C  7.313E-01  
Iter  1  Root  1 = -76.218758958   Delta_E -9.108E-02   Delta_C  7.066E-02  
Iter  2  Root  1 = -76.219902357   Delta_E -1.143E-03   Delta_C  2.162E-02  
Iter  3  Root  1 = -76.220047197   Delta_E -1.448E-04   Delta_C  6.426E-03  
Iter  4  Root  1 = -76.220059085   Delta_E -1.189E-05   Delta_C  1.747E-03  
Iter  5  Root  1 = -76.220060255   Delta_E -1.170E-06   Delta_C  5.444E-04  
Iter  6  Root  1 = -76.220060344   Delta_E -8.984E-08   Delta_C  1.533E-04  
Iter  7  Root  1 = -76.220060350   Delta_E -5.259E-09   Delta_C  2.868E-05 c

* ROOT 1 CI total energy = -76.2200603496500


The 20 most important determinants

    1   -0.973650  (  475,  475)  1A1X  2A1X  3A1X  1B1X  1B2X  
    2    0.047869  (  503,  503)  1A1X  2A1X  3A1X  1B2X  2B1X  
    3    0.038646  (  506,  506)  1A1X  2A1X  3A1X  1B1X  2B2X  
    4    0.031527  (  482,  482)  1A1X  2A1X  1B1X  1B2X  6A1X  
    5    0.027066  (  507,  507)  1A1X  2A1X  3A1X  1B1X  3B2X  
    6    0.025481  (  482,  503)  1A1X  2A1X  3A1B  1B1A  1B2X  6A1A  2B1B  
    7    0.025481  (  503,  482)  1A1X  2A1X  3A1A  1B1B  1B2X  6A1B  2B1A  
    8   -0.022992  (  503,  508)  1A1X  2A1X  3A1X  1B1B  1B2A  2B1A  4B2B  
    9   -0.022992  (  508,  503)  1A1X  2A1X  3A1X  1B1A  1B2B  2B1B  4B2A  
   10   -0.022841  (  503,  506)  1A1X  2A1X  3A1X  1B1B  1B2A  2B1A  2B2B  
   11   -0.022841  (  506,  503)  1A1X  2A1X  3A1X  1B1A  1B2B  2B1B  2B2A  
   12    0.022712  (  508,  508)  1A1X  2A1X  3A1X  1B1X  4B2X  
   13    0.022632  ( 1011, 1011)  1A1X  2A1X  3A1X  1B1X  5A1X  
   14    0.022444  (  476,  476)  1A1X  2A1X  1B1X  1B2X  4A1X  
   15    0.021976  (  506,  508)  1A1X  2A1X  3A1X  1B1X  2B2A  4B2B  
   16    0.021976  (  508,  506)  1A1X  2A1X  3A1X  1B1X  2B2B  4B2A  
   17   -0.021209  (  476,  506)  1A1X  2A1X  3A1B  1B1X  1B2A  4A1A  2B2B  
   18   -0.021209  (  506,  476)  1A1X  2A1X  3A1A  1B1X  1B2B  4A1B  2B2A  
   19    0.020598  ( 1024, 1024)  1A1X  2A1X  1B1X  1B2X  3B2X  
*  20    0.018705  (  488,  488)  1A1X  2A1X  1B1X  1B2X  8A1X  




        Total Time (s)     %Time 		%Relative
 -----------------------------------------------------
 Read      0.014153
 Write     0.004841
 Sigma1    0.001262
 Sigma2    0.322053
 Sigma3    0.288751
 S1 Thread 0.000000
 S2 Thread 0.000000
 S3 Thread 0.000000

		 "A good bug is a dead bug" 

			 - Starship Troopers

		 "I didn't write FORTRAN.  That's the problem."

			 - Edward Valeev


*** tstop() called on lawn-143-215-103-161.lawn.gatech.edu at Fri Apr 27 14:06:02 2012
Module time:
	user time   =       0.57 seconds =       0.01 minutes
	system time =       0.02 seconds =       0.00 minutes
	total time  =          0 seconds =       0.00 minutes
Total time:
	user time   =       2.59 seconds =       0.04 minutes
	system time =       0.16 seconds =       0.00 minutes
	total time  =          3 seconds =       0.05 minutes

  //>>>>>>>>>>>>>>>>>>>>>>>>>>>>>>>>>>>//
  //    Loading displacement 5 of 5    //
  //<<<<<<<<<<<<<<<<<<<<<<<<<<<<<<<<<<<//

*** tstart() called on lawn-143-215-103-161.lawn.gatech.edu
*** at Fri Apr 27 14:06:02 2012

	There are an even number of electrons - assuming singlet.
	Specify the multiplicity with the MULTP option in the
	input if this is incorrect


         ---------------------------------------------------------
                                   SCF
            by Justin Turney, Rob Parrish, and Andy Simmonett
                              RHF Reference
                        1 Threads,    250 MiB Core
         ---------------------------------------------------------

  ==> Geometry <==

    Molecular point group: c2v

    Geometry (in Angstrom), charge = 0, multiplicity = 1:

       Center              X                  Y                   Z       
    ------------   -----------------  -----------------  -----------------
           O          0.000000000000     0.000000000000    -0.069592187390
           H          0.000000000000    -0.783151105291     0.552239257844
           H          0.000000000000     0.783151105291     0.552239257844

  Running in c2v symmetry.

  Nuclear repulsion =    8.804686618639053

  Charge       = 0
  Multiplicity = 1
  Electrons    = 10
  Nalpha       = 5
  Nbeta        = 5

  ==> Algorithm <==

  SCF Algorithm Type is PK.
  DIIS enabled.
  MOM disabled.
  Fractional occupation disabled.
  Guess Type is CORE.
  Energy threshold   = 1.00e-08
  Density threshold  = 1.00e-08
  Integral threshold = 0.00e+00

  ==> Primary Basis <==

  Basis Set: 6-31G**
    Number of shells: 12
    Number of basis function: 25
    Number of Cartesian functions: 25
    Spherical Harmonics?: false
    Max angular momentum: 2

  ==> Pre-Iterations <==

  Minimum eigenvalue in the overlap matrix is 2.3361254517E-02.
  Using Symmetric Orthogonalization.
  SCF Guess: Core (One-Electron) Hamiltonian.

  Initial RHF energy:   -58.75934053798493

   -------------------------------------------------------
    Irrep   Nso     Nmo     Nalpha   Nbeta   Ndocc  Nsocc
   -------------------------------------------------------
     A1        12      12       3       3       3       0
     A2         2       2       0       0       0       0
     B1         4       4       1       1       1       0
     B2         7       7       1       1       1       0
   -------------------------------------------------------
    Total      25      25       5       5       5       0
   -------------------------------------------------------

  ==> Integral Setup <==

 MINTS: Wrapper to libmints.
   by Justin Turney

   Calculation information:
      Number of atoms:                   3
      Number of AO shells:              12
      Number of SO shells:               9
      Number of primitives:             25
      Number of atomic orbitals:        25
      Number of basis functions:        25

      Number of irreps:                  4
      Number of functions per irrep: [  12    2    4    7 ]

      Overlap, kinetic, potential, dipole, and quadrupole integrals
        stored in file 35.

      Computing two-electron integrals...done
      Computed 13617 non-zero two-electron integrals.
        Stored in file 33.

  ==> Iterations <==

                        Total Energy        Delta E     Density RMS

   @RHF iter   1:   -68.35488457246657   -9.59554e+00   0.00000e+00 
	Occupation by irrep:
	         A1    A2    B1    B2 
	DOCC [     4,    0,    0,    1 ]

   @RHF iter   2:   -71.39794022308770   -3.04306e+00   5.03598e-01 DIIS
	Occupation by irrep:
	         A1    A2    B1    B2 
	DOCC [     3,    0,    1,    1 ]

   @RHF iter   3:   -75.77170401393595   -4.37376e+00   4.76874e-01 DIIS
   @RHF iter   4:   -76.00006701597418   -2.28363e-01   1.67735e-02 DIIS
   @RHF iter   5:   -76.01682090954404   -1.67539e-02   7.81375e-03 DIIS
   @RHF iter   6:   -76.01724892558656   -4.28016e-04   1.27860e-03 DIIS
   @RHF iter   7:   -76.01729488133468   -4.59557e-05   5.67962e-04 DIIS
   @RHF iter   8:   -76.01729645124902   -1.56991e-06   9.33669e-05 DIIS
   @RHF iter   9:   -76.01729655271538   -1.01466e-07   2.90504e-05 DIIS
   @RHF iter  10:   -76.01729655526368   -2.54830e-09   4.41619e-06 DIIS
   @RHF iter  11:   -76.01729655528250   -1.88152e-11   2.99636e-07 DIIS
   @RHF iter  12:   -76.01729655528305   -5.54223e-13   5.49518e-08 DIIS

  ==> Post-Iterations <==

	Orbital Energies (a.u.)
	-----------------------

	Doubly Occupied:                                                      

	   1A1   -20.569000     2A1    -1.320609     1B2    -0.678724  
	   3A1    -0.563930     1B1    -0.495004  

	Virtual:                                                              

	   4A1     0.202466     2B2     0.292719     3B2     0.981164  
	   5A1     1.056318     6A1     1.129179     2B1     1.168639  
	   4B2     1.294985     7A1     1.413596     1A2     1.802875  
	   8A1     1.806916     3B1     1.918871     9A1     2.513248  
	   5B2     2.537822     6B2     2.713577     2A2     2.921065  
	   4B1     2.947486    10A1     3.291755    11A1     3.620730  
	   7B2     3.874917    12A1     4.077740  

	Final Occupation by Irrep:
	         A1    A2    B1    B2 
	DOCC [     3,    0,    1,    1 ]

  Energy converged.

  @RHF Final Energy:   -76.01729655528305

   => Energetics <=

    Nuclear Repulsion Energy =          8.8046866186390531
    One-Electron Energy =            -122.3894311909409112
    Two-Electron Energy =              37.5674480170187977
    DFT Functional Energy =             0.0000000000000000
    Empirical Dispersion Energy =       0.0000000000000000
    Total Energy =                    -76.0172965552830533

  ==> Properties <==

  Nuclear Dipole Moment: (a.u.)
     X:     0.0000      Y:     0.0000      Z:     1.0351

  Electronic Dipole Moment: (a.u.)
     X:     0.0000      Y:     0.0000      Z:    -0.1532

  Dipole Moment: (a.u.)
     X:     0.0000      Y:     0.0000      Z:     0.8819     Total:     0.8819

  Dipole Moment: (Debye)
     X:     0.0000      Y:     0.0000      Z:     2.2414     Total:     2.2414


  Saving occupied orbitals to File 180.

*** tstop() called on lawn-143-215-103-161.lawn.gatech.edu at Fri Apr 27 14:06:02 2012
Module time:
	user time   =       0.07 seconds =       0.00 minutes
	system time =       0.01 seconds =       0.00 minutes
	total time  =          0 seconds =       0.00 minutes
Total time:
	user time   =       2.66 seconds =       0.04 minutes
	system time =       0.17 seconds =       0.00 minutes
	total time  =          3 seconds =       0.05 minutes

*** tstart() called on lawn-143-215-103-161.lawn.gatech.edu
*** at Fri Apr 27 14:06:02 2012


	**************************************************
	* TRANSQT2: Program to transform integrals from  *
	*           the SO basis to the MO basis.        *
	*                                                *
	*            Daniel, David, & Justin             *
	**************************************************


	Input parameters:
	-----------------
	Wave function   =	DETCI
	Backtransform   =	No
	Print Level     =	1
	Print TEIs      =	No
	Reference wfn   =	RHF
	Derivative      =	None
	Delete TEI File =	Yes
	Memory (Mbytes) =	250.0
	Cache Level     =	2
	Cache Type      =	LRU
	Chkpt Parameters:
	--------------------
	Number of irreps     = 4
	Number of SOs        = 25
	Number of MOs        = 25
	Number of active MOs = 25

	Label	# SOs	# FZDC	# DOCC	# SOCC	# VIRT	# FZVR
	-----	-----	------	------	------	------	------
	 A1	   12	    0	    3	    0	    9	    0
	 A2	   2	    0	    0	    0	    2	    0
	 B1	   4	    0	    1	    0	    3	    0
	 B2	   7	    0	    1	    0	    6	    0

	Nuclear Rep. energy (chkpt) =      8.80468661863905
	SCF energy          (chkpt) =    -76.01729655528305

	Presorting SO-basis two-electron integrals.
	Sorting File: SO Ints (pq,rs) nbuckets = 1
	Frozen-core energy =    0.000000000000000
	Starting first half-transformation.
	Sorting half-transformed integrals.
	Starting second half-transformation.
	Two-electron integral transformation complete.

*** tstop() called on lawn-143-215-103-161.lawn.gatech.edu at Fri Apr 27 14:06:02 2012
Module time:
	user time   =       0.01 seconds =       0.00 minutes
	system time =       0.01 seconds =       0.00 minutes
	total time  =          0 seconds =       0.00 minutes
Total time:
	user time   =       2.67 seconds =       0.04 minutes
	system time =       0.18 seconds =       0.00 minutes
	total time  =          3 seconds =       0.05 minutes

*** tstart() called on lawn-143-215-103-161.lawn.gatech.edu
*** at Fri Apr 27 14:06:02 2012


*******************************************************
                       D E T C I  

                   C. David Sherrill
                   Matt L. Leininger
                     18 June 1999
*******************************************************




PARAMETERS: 
   EX LEVEL      =        2      H0 BLOCKSIZE =      400
   VAL EX LEVEL  =        0      H0 GUESS SIZE=      400
   H0COUPLINGSIZE=        0      H0 COUPLING  =       no
   NUM PRINT     =       20
   MAXITER       =       12      FREEZE CORE  =      yes
   NUM ROOTS     =        1      ICORE        =        1
   PRINT         =        1      FCI          =       no
   R CONV        =   1.00e-04      MIXED        =      yes
   E CONV        =   1.00e-06      MIXED4       =      yes
   OEI FILE      =       35      R4S          =       no
   REPL OTF      =       no
   TEI FILE      =       72      DIAG METHOD  =      SEM
   PRECONDITIONER= DAVIDSON      UPDATE       =   DAVIDSON
   S             =   0.0000      Ms0          =      yes
   MAX NUM VECS  =       13
   RESTART       =       no
   GUESS VECTOR  =  H0BLOCK      OPENTYPE     =     NONE
   REF SYM       =     auto
   COLLAPSE SIZE =        1      HD AVG       = EVANGELISTI
   LSE           =       no      LSE ITER     =        0
   HD OTF        =      yes      NO DFILE     =       no
   MPN           =       no      MPN SCHMIDT  =       no
   ZAPTN         =       no      MPN WIGNER   =       no
   PERT Z        =   1.0000    FOLLOW ROOT  =        0
   NUM THREADS   =        1
   VECS WRITE    =       no      NUM VECS WRITE =        0
   FILTER GUESS  =       no      SF RESTRICT  =       no
   OPDM          =       no      TRANS DENSITY=       no

   FILES         =  50 51 52 53

   EX ALLOW      =  1  1 
   STATE AVERAGE =  1(1.00) 
   STATE AVERAGE =  1(1.00) 

ORBITALS:
   NMO          =       25      NUM ALP      =        5
   ORBS IN CI   =       25      NUM ALP EXPL =        5
   FROZEN CORE  =        0      NUM BET      =        5
   RESTR CORE   =        0      NUM BET EXPL =        5
   IOPEN        =       no
   RAS1 LVL     =        4      A RAS3 MAX   =        2
   RAS1 MIN     =        8      B RAS3 MAX   =        2
   A RAS1 LVL   =        4      RAS4 LVL     =       25
   A RAS1 MIN   =        3      A RAS4 MAX   =        0
   A RAS1 MAX   =        5      B RAS4 MAX   =        0
   B RAS1 LVL   =        4      RAS4 MAX     =        0
   B RAS1 MIN   =        3      A RAS34 MAX  =        2
   B RAS1 MAX   =        5      B RAS34 MAX  =        2
   RAS3 LVL     =        5      RAS34 MAX    =        2
   RAS3 MAX     =        2

   DOCC         =  3  0  1  1 
   SOCC         =  0  0  0  0 
   FROZEN DOCC  =  0  0  0  0 
   FROZEN UOCC  =  0  0  0  0 
   RAS 1        =  3  0  1  1 
   RAS 2        =  0  0  0  0 
   RAS 3        =  9  2  3  6 
   RAS 4        =  0  0  0  0 
*******************************************************


There are 2001 alpha strings
There are 2001 beta strings
CI space contains    9 blocks

CI space requires 3831 determinants

Check SCF Energy from 1- and 2-electron integrals

SCF Energy (ref):            -76.0172965553
Nuclear repulsion energy:      8.8046866186
One-electron energy:        -122.3894315009
Two-electron energy:          37.5674483270
Frozen core energy:            0.0000000000
Total electronic energy:     -84.8219831739
Total SCF energy:            -76.0172965553

*** H0 Block Eigenvalue = -76.12755428

Find the roots by the Simultaneous Expansion Method (Block Davidson Method)
Energy convergence = 1e-06
RMS CI vector convergence = 0.0001

Using 1 initial trial vectors
Iter  0  Root  1 = -76.127554277   Delta_E -8.493E+01   Delta_C  7.308E-01  
Iter  1  Root  1 = -76.218546150   Delta_E -9.099E-02   Delta_C  7.062E-02  
Iter  2  Root  1 = -76.219689165   Delta_E -1.143E-03   Delta_C  2.164E-02  
Iter  3  Root  1 = -76.219834250   Delta_E -1.451E-04   Delta_C  6.432E-03  
Iter  4  Root  1 = -76.219846176   Delta_E -1.193E-05   Delta_C  1.751E-03  
Iter  5  Root  1 = -76.219847353   Delta_E -1.177E-06   Delta_C  5.467E-04  
Iter  6  Root  1 = -76.219847444   Delta_E -9.061E-08   Delta_C  1.540E-04  
Iter  7  Root  1 = -76.219847449   Delta_E -5.312E-09   Delta_C  2.883E-05 c

* ROOT 1 CI total energy = -76.2198474490689


The 20 most important determinants

    1   -0.973608  (  475,  475)  1A1X  2A1X  3A1X  1B1X  1B2X  
    2    0.047868  (  503,  503)  1A1X  2A1X  3A1X  1B2X  2B1X  
    3    0.038775  (  506,  506)  1A1X  2A1X  3A1X  1B1X  2B2X  
    4    0.031728  (  482,  482)  1A1X  2A1X  1B1X  1B2X  6A1X  
    5    0.027069  (  507,  507)  1A1X  2A1X  3A1X  1B1X  3B2X  
    6    0.025589  (  482,  503)  1A1X  2A1X  3A1B  1B1A  1B2X  6A1A  2B1B  
    7    0.025589  (  503,  482)  1A1X  2A1X  3A1A  1B1B  1B2X  6A1B  2B1A  
    8   -0.022976  (  503,  508)  1A1X  2A1X  3A1X  1B1B  1B2A  2B1A  4B2B  
    9   -0.022976  (  508,  503)  1A1X  2A1X  3A1X  1B1A  1B2B  2B1B  4B2A  
   10   -0.022864  (  503,  506)  1A1X  2A1X  3A1X  1B1B  1B2A  2B1A  2B2B  
   11   -0.022864  (  506,  503)  1A1X  2A1X  3A1X  1B1A  1B2B  2B1B  2B2A  
   12    0.022766  ( 1011, 1011)  1A1X  2A1X  3A1X  1B1X  5A1X  
   13    0.022681  (  508,  508)  1A1X  2A1X  3A1X  1B1X  4B2X  
   14    0.022587  (  476,  476)  1A1X  2A1X  1B1X  1B2X  4A1X  
   15    0.021959  (  506,  508)  1A1X  2A1X  3A1X  1B1X  2B2A  4B2B  
   16    0.021959  (  508,  506)  1A1X  2A1X  3A1X  1B1X  2B2B  4B2A  
   17   -0.021324  (  476,  506)  1A1X  2A1X  3A1B  1B1X  1B2A  4A1A  2B2B  
   18   -0.021324  (  506,  476)  1A1X  2A1X  3A1A  1B1X  1B2B  4A1B  2B2A  
   19    0.020579  ( 1024, 1024)  1A1X  2A1X  1B1X  1B2X  3B2X  
   20    0.018748  ( 1010, 1010)  1A1X  2A1X  3A1X  1B1X  4A1X  




        Total Time (s)     %Time 		%Relative
 -----------------------------------------------------
 Read      0.017602
 Write     0.005848
 Sigma1    0.001556
 Sigma2    0.398776
 Sigma3    0.359378
 S1 Thread 0.000000
 S2 Thread 0.000000
 S3 Thread 0.000000

		 "A good bug is a dead bug" 

			 - Starship Troopers

		 "I didn't write FORTRAN.  That's the problem."

			 - Edward Valeev


*** tstop() called on lawn-143-215-103-161.lawn.gatech.edu at Fri Apr 27 14:06:03 2012
Module time:
	user time   =       0.58 seconds =       0.01 minutes
	system time =       0.02 seconds =       0.00 minutes
	total time  =          1 seconds =       0.02 minutes
Total time:
	user time   =       3.25 seconds =       0.05 minutes
	system time =       0.20 seconds =       0.00 minutes
	total time  =          4 seconds =       0.07 minutes

-------------------------------------------------------------

  Computing gradient from energies (fd_1_0).
	Using 3-point formula.
	Energy without displacement:  -76.2198474491
	Check energies below for precision!
	Forces are for mass-weighted, symmetry-adapted cartesians (in au).

	 Coord      Energy(-)        Energy(+)        Force
	    0    -76.2196689440   -76.2200203221    -0.0351378033
	    1    -76.2196263163   -76.2200603496    -0.0434033374

	Gradient written to file11.
	Gradient saved to wavefunction.

-------------------------------------------------------------

			----------------------------------
			 OPTKING: for geometry optimizations  
			  - R.A. King,  Bethel University   
			------------------------------------

	Internal coordinates to be generated automatically.
	Detected frag with atoms:  1 2 3
	---Fragment 1 Bond Connectivity---
	 1 : 2 3
	 2 : 1
	 3 : 1

	---Fragment 1 Geometry and Gradient---
	 O           0.0000000000        0.0000000000       -0.1315101752
	 H           0.0000000000       -1.4799411097        1.0435809572
	 H           0.0000000000        1.4799411097        1.0435809572
	             0.0000000000        0.0000000000       -0.0470120809
	             0.0000000000       -0.0308106384        0.0235060404
	             0.0000000000        0.0308106384        0.0235060404

	Previous optimization step data not found.  Starting new optimization.

	---Fragment 1 Intrafragment Coordinates---
	 - Coordinate -           - BOHR/RAD -       - ANG/DEG -
	 R(1,2)           =         1.889726	       1.000000
[...]
         ---------------------------------------------------------

  ==> Geometry <==

    Molecular point group: c2v

    Geometry (in Angstrom), charge = 0, multiplicity = 1:

       Center              X                  Y                   Z       
    ------------   -----------------  -----------------  -----------------
           O          0.000000000000     0.000000000000    -0.065715388089
           H          0.000000000000    -0.756135155700     0.521475448726
           H          0.000000000000     0.756135155700     0.521475448726

  Running in c2v symmetry.

  Nuclear repulsion =    9.193886107271567

  Charge       = 0
  Multiplicity = 1
  Electrons    = 10
  Nalpha       = 5
  Nbeta        = 5

  ==> Algorithm <==

  SCF Algorithm Type is PK.
  DIIS enabled.
  MOM disabled.
  Fractional occupation disabled.
  Guess Type is CORE.
  Energy threshold   = 1.00e-08
  Density threshold  = 1.00e-08
  Integral threshold = 0.00e+00

  ==> Primary Basis <==

  Basis Set: 6-31G**
    Number of shells: 12
    Number of basis function: 25
    Number of Cartesian functions: 25
    Spherical Harmonics?: false
    Max angular momentum: 2

  ==> Pre-Iterations <==

  Minimum eigenvalue in the overlap matrix is 2.1895271912E-02.
  Using Symmetric Orthogonalization.
  SCF Guess: Core (One-Electron) Hamiltonian.

  Initial RHF energy:   -58.64232907789705

   -------------------------------------------------------
    Irrep   Nso     Nmo     Nalpha   Nbeta   Ndocc  Nsocc
   -------------------------------------------------------
     A1        12      12       3       3       3       0
     A2         2       2       0       0       0       0
     B1         4       4       1       1       1       0
     B2         7       7       1       1       1       0
   -------------------------------------------------------
    Total      25      25       5       5       5       0
   -------------------------------------------------------

  ==> Integral Setup <==

 MINTS: Wrapper to libmints.
   by Justin Turney

   Calculation information:
      Number of atoms:                   3
      Number of AO shells:              12
      Number of SO shells:               9
      Number of primitives:             25
      Number of atomic orbitals:        25
      Number of basis functions:        25

      Number of irreps:                  4
      Number of functions per irrep: [  12    2    4    7 ]

      Overlap, kinetic, potential, dipole, and quadrupole integrals
        stored in file 35.

      Computing two-electron integrals...done
      Computed 13617 non-zero two-electron integrals.
        Stored in file 33.

  ==> Iterations <==

                        Total Energy        Delta E     Density RMS

   @RHF iter   1:   -68.26968560888329   -9.62736e+00   0.00000e+00 
	Occupation by irrep:
	         A1    A2    B1    B2 
	DOCC [     4,    0,    0,    1 ]

   @RHF iter   2:   -71.41473542652173   -3.14505e+00   5.29756e-01 DIIS
	Occupation by irrep:
	         A1    A2    B1    B2 
	DOCC [     3,    0,    1,    1 ]

   @RHF iter   3:   -75.76822376315589   -4.35349e+00   5.04196e-01 DIIS
   @RHF iter   4:   -76.00599444303882   -2.37771e-01   1.71758e-02 DIIS
   @RHF iter   5:   -76.02274523072865   -1.67508e-02   7.67194e-03 DIIS
   @RHF iter   6:   -76.02310779520008   -3.62564e-04   1.21081e-03 DIIS
   @RHF iter   7:   -76.02314297576017   -3.51806e-05   5.08116e-04 DIIS
   @RHF iter   8:   -76.02314399011603   -1.01436e-06   7.95191e-05 DIIS
   @RHF iter   9:   -76.02314404951484   -5.93988e-08   2.19532e-05 DIIS
   @RHF iter  10:   -76.02314405095660   -1.44176e-09   3.60071e-06 DIIS
   @RHF iter  11:   -76.02314405096141   -4.80327e-12   1.53333e-07 DIIS
   @RHF iter  12:   -76.02314405096159   -1.84741e-13   2.82179e-08 DIIS

  ==> Post-Iterations <==

	Orbital Energies (a.u.)
	-----------------------

	Doubly Occupied:                                                      

	   1A1   -20.560741     2A1    -1.340400     1B2    -0.703037  
	   3A1    -0.569080     1B1    -0.497212  

	Virtual:                                                              

	   4A1     0.212060     2B2     0.304703     3B2     1.003585  
	   5A1     1.086908     6A1     1.132813     2B1     1.168841  
	   4B2     1.294796     7A1     1.415051     1A2     1.804073  
	   8A1     1.816272     3B1     1.924797     9A1     2.570868  
	   5B2     2.577567     6B2     2.807424     2A2     2.978911  
	   4B1     2.991604    10A1     3.377158    11A1     3.710023  
	   7B2     3.927260    12A1     4.108098  

	Final Occupation by Irrep:
	         A1    A2    B1    B2 
	DOCC [     3,    0,    1,    1 ]

  Energy converged.

  @RHF Final Energy:   -76.02314405096159

   => Energetics <=

    Nuclear Repulsion Energy =          9.1938861072715667
    One-Electron Energy =            -123.0931196670682510
    Two-Electron Energy =              37.8760895088351077
    DFT Functional Energy =             0.0000000000000000
    Empirical Dispersion Energy =       0.0000000000000000
    Total Energy =                    -76.0231440509615766

  ==> Properties <==

  Nuclear Dipole Moment: (a.u.)
     X:     0.0000      Y:     0.0000      Z:     0.9774

  Electronic Dipole Moment: (a.u.)
     X:     0.0000      Y:     0.0000      Z:    -0.1167

  Dipole Moment: (a.u.)
     X:     0.0000      Y:     0.0000      Z:     0.8607     Total:     0.8607

  Dipole Moment: (Debye)
     X:     0.0000      Y:     0.0000      Z:     2.1877     Total:     2.1877


  Saving occupied orbitals to File 180.

*** tstop() called on lawn-143-215-103-161.lawn.gatech.edu at Fri Apr 27 14:06:21 2012
Module time:
	user time   =       0.06 seconds =       0.00 minutes
	system time =       0.01 seconds =       0.00 minutes
	total time  =          0 seconds =       0.00 minutes
Total time:
	user time   =      19.13 seconds =       0.32 minutes
	system time =       1.22 seconds =       0.02 minutes
	total time  =         22 seconds =       0.37 minutes

*** tstart() called on lawn-143-215-103-161.lawn.gatech.edu
*** at Fri Apr 27 14:06:21 2012


	**************************************************
	* TRANSQT2: Program to transform integrals from  *
	*           the SO basis to the MO basis.        *
	*                                                *
	*            Daniel, David, & Justin             *
	**************************************************


	Input parameters:
	-----------------
	Wave function   =	DETCI
	Backtransform   =	No
	Print Level     =	1
	Print TEIs      =	No
	Reference wfn   =	RHF
	Derivative      =	None
	Delete TEI File =	Yes
	Memory (Mbytes) =	250.0
	Cache Level     =	2
	Cache Type      =	LRU
	Chkpt Parameters:
	--------------------
	Number of irreps     = 4
	Number of SOs        = 25
	Number of MOs        = 25
	Number of active MOs = 25

	Label	# SOs	# FZDC	# DOCC	# SOCC	# VIRT	# FZVR
	-----	-----	------	------	------	------	------
	 A1	   12	    0	    3	    0	    9	    0
	 A2	   2	    0	    0	    0	    2	    0
	 B1	   4	    0	    1	    0	    3	    0
	 B2	   7	    0	    1	    0	    6	    0

	Nuclear Rep. energy (chkpt) =      9.19388610727157
	SCF energy          (chkpt) =    -76.02314405096159

	Presorting SO-basis two-electron integrals.
	Sorting File: SO Ints (pq,rs) nbuckets = 1
	Frozen-core energy =    0.000000000000000
	Starting first half-transformation.
	Sorting half-transformed integrals.
	Starting second half-transformation.
	Two-electron integral transformation complete.

*** tstop() called on lawn-143-215-103-161.lawn.gatech.edu at Fri Apr 27 14:06:21 2012
Module time:
	user time   =       0.01 seconds =       0.00 minutes
	system time =       0.01 seconds =       0.00 minutes
	total time  =          0 seconds =       0.00 minutes
Total time:
	user time   =      19.14 seconds =       0.32 minutes
	system time =       1.23 seconds =       0.02 minutes
	total time  =         22 seconds =       0.37 minutes

*** tstart() called on lawn-143-215-103-161.lawn.gatech.edu
*** at Fri Apr 27 14:06:21 2012


*******************************************************
                       D E T C I  

                   C. David Sherrill
                   Matt L. Leininger
                     18 June 1999
*******************************************************




PARAMETERS: 
   EX LEVEL      =        2      H0 BLOCKSIZE =      400
   VAL EX LEVEL  =        0      H0 GUESS SIZE=      400
   H0COUPLINGSIZE=        0      H0 COUPLING  =       no
   NUM PRINT     =       20
   MAXITER       =       12      FREEZE CORE  =      yes
   NUM ROOTS     =        1      ICORE        =        1
   PRINT         =        1      FCI          =       no
   R CONV        =   1.00e-04      MIXED        =      yes
   E CONV        =   1.00e-06      MIXED4       =      yes
   OEI FILE      =       35      R4S          =       no
   REPL OTF      =       no
   TEI FILE      =       72      DIAG METHOD  =      SEM
   PRECONDITIONER= DAVIDSON      UPDATE       =   DAVIDSON
   S             =   0.0000      Ms0          =      yes
   MAX NUM VECS  =       13
   RESTART       =       no
   GUESS VECTOR  =  H0BLOCK      OPENTYPE     =     NONE
   REF SYM       =     auto
   COLLAPSE SIZE =        1      HD AVG       = EVANGELISTI
   LSE           =       no      LSE ITER     =        0
   HD OTF        =      yes      NO DFILE     =       no
   MPN           =       no      MPN SCHMIDT  =       no
   ZAPTN         =       no      MPN WIGNER   =       no
   PERT Z        =   1.0000    FOLLOW ROOT  =        0
   NUM THREADS   =        1
   VECS WRITE    =       no      NUM VECS WRITE =        0
   FILTER GUESS  =       no      SF RESTRICT  =       no
   OPDM          =       no      TRANS DENSITY=       no

   FILES         =  50 51 52 53

   EX ALLOW      =  1  1 
   STATE AVERAGE =  1(1.00) 
   STATE AVERAGE =  1(1.00) 

ORBITALS:
   NMO          =       25      NUM ALP      =        5
   ORBS IN CI   =       25      NUM ALP EXPL =        5
   FROZEN CORE  =        0      NUM BET      =        5
   RESTR CORE   =        0      NUM BET EXPL =        5
   IOPEN        =       no
   RAS1 LVL     =        4      A RAS3 MAX   =        2
   RAS1 MIN     =        8      B RAS3 MAX   =        2
   A RAS1 LVL   =        4      RAS4 LVL     =       25
   A RAS1 MIN   =        3      A RAS4 MAX   =        0
   A RAS1 MAX   =        5      B RAS4 MAX   =        0
   B RAS1 LVL   =        4      RAS4 MAX     =        0
   B RAS1 MIN   =        3      A RAS34 MAX  =        2
   B RAS1 MAX   =        5      B RAS34 MAX  =        2
   RAS3 LVL     =        5      RAS34 MAX    =        2
   RAS3 MAX     =        2

   DOCC         =  3  0  1  1 
   SOCC         =  0  0  0  0 
   FROZEN DOCC  =  0  0  0  0 
   FROZEN UOCC  =  0  0  0  0 
   RAS 1        =  3  0  1  1 
   RAS 2        =  0  0  0  0 
   RAS 3        =  9  2  3  6 
   RAS 4        =  0  0  0  0 
*******************************************************


There are 2001 alpha strings
There are 2001 beta strings
CI space contains    9 blocks

CI space requires 3831 determinants

Check SCF Energy from 1- and 2-electron integrals

SCF Energy (ref):            -76.0231440510
Nuclear repulsion energy:      9.1938861073
One-electron energy:        -123.0931199150
Two-electron energy:          37.8760897568
Frozen core energy:            0.0000000000
Total electronic energy:     -85.2170301582
Total SCF energy:            -76.0231440510

*** H0 Block Eigenvalue = -76.12822755

Find the roots by the Simultaneous Expansion Method (Block Davidson Method)
Energy convergence = 1e-06
RMS CI vector convergence = 0.0001

Using 1 initial trial vectors
Iter  0  Root  1 = -76.128227553   Delta_E -8.532E+01   Delta_C  7.462E-01  
Iter  1  Root  1 = -76.221817058   Delta_E -9.359E-02   Delta_C  7.174E-02  
Iter  2  Root  1 = -76.222967817   Delta_E -1.151E-03   Delta_C  2.122E-02  
Iter  3  Root  1 = -76.223104658   Delta_E -1.368E-04   Delta_C  6.219E-03  
Iter  4  Root  1 = -76.223115485   Delta_E -1.083E-05   Delta_C  1.639E-03  
Iter  5  Root  1 = -76.223116492   Delta_E -1.006E-06   Delta_C  4.938E-04  
Iter  6  Root  1 = -76.223116565   Delta_E -7.353E-08   Delta_C  1.375E-04  
Iter  7  Root  1 = -76.223116569   Delta_E -4.124E-09   Delta_C  2.560E-05 c

* ROOT 1 CI total energy = -76.2231165692126


The 20 most important determinants

    1   -0.974874  (  475,  475)  1A1X  2A1X  3A1X  1B1X  1B2X  
    2    0.047901  (  503,  503)  1A1X  2A1X  3A1X  1B2X  2B1X  
    3    0.033853  (  506,  506)  1A1X  2A1X  3A1X  1B1X  2B2X  
    4    0.026999  (  482,  482)  1A1X  2A1X  1B1X  1B2X  6A1X  
    5    0.026874  (  507,  507)  1A1X  2A1X  3A1X  1B1X  3B2X  
    6    0.023116  (  508,  508)  1A1X  2A1X  3A1X  1B1X  4B2X  
    7   -0.023080  (  503,  508)  1A1X  2A1X  3A1X  1B1B  1B2A  2B1A  4B2B  
    8   -0.023080  (  508,  503)  1A1X  2A1X  3A1X  1B1A  1B2B  2B1B  4B2A  
    9    0.022888  (  482,  503)  1A1X  2A1X  3A1B  1B1A  1B2X  6A1A  2B1B  
   10    0.022888  (  503,  482)  1A1X  2A1X  3A1A  1B1B  1B2X  6A1B  2B1A  
   11   -0.022051  (  503,  506)  1A1X  2A1X  3A1X  1B1B  1B2A  2B1A  2B2B  
   12   -0.022051  (  506,  503)  1A1X  2A1X  3A1X  1B1A  1B2B  2B1B  2B2A  
   13    0.021691  (  506,  508)  1A1X  2A1X  3A1X  1B1X  2B2A  4B2B  
   14    0.021691  (  508,  506)  1A1X  2A1X  3A1X  1B1X  2B2B  4B2A  
   15    0.021413  (  479,  479)  1A1X  2A1X  1B1X  1B2X  5A1X  
   16    0.020960  ( 1024, 1024)  1A1X  2A1X  1B1X  1B2X  3B2X  
   17    0.019953  ( 1011, 1011)  1A1X  2A1X  3A1X  1B1X  5A1X  
*  18    0.019398  (  488,  488)  1A1X  2A1X  1B1X  1B2X  8A1X  
   19    0.019026  (  479,  503)  1A1X  2A1X  3A1B  1B1A  1B2X  5A1A  2B1B  
   20    0.019026  (  503,  479)  1A1X  2A1X  3A1A  1B1B  1B2X  5A1B  2B1A  




        Total Time (s)     %Time 		%Relative
 -----------------------------------------------------
 Read      0.110476
 Write     0.036132
 Sigma1    0.011294
 Sigma2    2.595839
 Sigma3    2.239881
 S1 Thread 0.000000
 S2 Thread 0.000000
 S3 Thread 0.000000

		 "A good bug is a dead bug" 

			 - Starship Troopers

		 "I didn't write FORTRAN.  That's the problem."

			 - Edward Valeev


*** tstop() called on lawn-143-215-103-161.lawn.gatech.edu at Fri Apr 27 14:06:22 2012
Module time:
	user time   =       0.58 seconds =       0.01 minutes
	system time =       0.02 seconds =       0.00 minutes
	total time  =          1 seconds =       0.02 minutes
Total time:
	user time   =      19.73 seconds =       0.33 minutes
	system time =       1.25 seconds =       0.02 minutes
	total time  =         23 seconds =       0.38 minutes

-------------------------------------------------------------

  Computing gradient from energies (fd_1_0).
	Using 3-point formula.
	Energy without displacement:  -76.2231165692
	Check energies below for precision!
	Forces are for mass-weighted, symmetry-adapted cartesians (in au).

	 Coord      Energy(-)        Energy(+)        Force
	    0    -76.2231131571   -76.2231131590    -0.0000001809
	    1    -76.2231112363   -76.2231112389    -0.0000002640

	Gradient written to file11.
	Gradient saved to wavefunction.

-------------------------------------------------------------

			----------------------------------
			 OPTKING: for geometry optimizations  
			  - R.A. King,  Bethel University   
			------------------------------------

	Previous internal coordinate definitions found.
	---Fragment 1 Geometry and Gradient---
	 O           0.0000000000        0.0000000000       -0.1241840862
	 H           0.0000000000       -1.4288883637        0.9854457831
	 H           0.0000000000        1.4288883637        0.9854457831
	             0.0000000000        0.0000000000       -0.0000002421
	             0.0000000000       -0.0000001874        0.0000001210
	             0.0000000000        0.0000001874        0.0000001210

	---Fragment 1 Intrafragment Coordinates---
	 - Coordinate -           - BOHR/RAD -       - ANG/DEG -
	 R(1,2)           =         1.809144	       0.957358
	 R(1,3)           =         1.809144	       0.957358
	 B(2,1,3)         =         1.821014	     104.336416

	Current energy   :       -76.2231165692

	Energy change for the previous step:
		Projected    :        -0.0000000000
		Actual       :         0.0000000000
	Energy ratio indicates iffy step: Trust radius decreased to 2.500e-01.


	Performing BFGS update with previous 1 gradient(s).
	Denominators (dg)(dq) or (dq)(dq) are very small.
	 Skipping Hessian update for step 5.
	Going to follow RFO solution 1.
	Projected energy change by RFO approximation:        -0.0000000000

	Back-transformation to cartesian coordinates...
	Successfully converged to displaced geometry.

	---Internal Coordinate Step in ANG or DEG, aJ/ANG or AJ/DEG ---
	 ----------------------------------------------------------------------
	 Coordinate             Previous        Force       Change         New 
	 ----------             --------       ------       ------       ------
	 R(1,2)          =      0.957358    -0.000002    -0.000000     0.957357
	 R(1,3)          =      0.957358    -0.000002    -0.000000     0.957357
	 B(2,1,3)        =    104.336416    -0.000000    -0.000004   104.336413
	 ----------------------------------------------------------------------

  ==> Convergence Check <==

  Measures of convergence in internal coordinates in au.
  Criteria marked as inactive (o), active & met (*), and active & unmet ( ).
  ---------------------------------------------------------------------------------------------
   Step     Total Energy     Delta E     MAX Force     RMS Force      MAX Disp      RMS Disp   
  ---------------------------------------------------------------------------------------------
    Convergence Criteria    1.00e-06 *    1.00e-06 *             o    1.00e-04 *             o
  ---------------------------------------------------------------------------------------------
      6     -76.22311657    8.64e-12 *    2.22e-07 *    1.83e-07 o    4.50e-07 *    3.69e-07 o  ~
  ---------------------------------------------------------------------------------------------


  **** Optimization is complete! ****

  ==> Optimization Summary <==

  Measures of convergence in internal coordinates in au.
  --------------------------------------------------------------------------------------------------------------- ~
   Step         Total Energy             Delta E       MAX Force       RMS Force        MAX Disp        RMS Disp  ~
  --------------------------------------------------------------------------------------------------------------- ~
      1     -76.219847449069    -76.219847449069      0.03874618      0.03164671      0.08020151      0.06566914  ~
      2     -76.223038177821     -0.003190728752      0.00525191      0.00310119      0.03167565      0.01829231  ~
      3     -76.223116359203     -0.000078181382      0.00026396      0.00015259      0.00155231      0.00090175  ~
      4     -76.223116568987     -0.000000209785      0.00000853      0.00000725      0.00001657      0.00001612  ~
      5     -76.223116569221     -0.000000000234      0.00000139      0.00000114      0.00000281      0.00000231  ~
      6     -76.223116569213      0.000000000009      0.00000022      0.00000018      0.00000045      0.00000037  ~
  --------------------------------------------------------------------------------------------------------------- ~

	Writing optimization data to binary file.
	Final energy is    -76.2231165692126
	Final (previous) structure:
	Cartesian Geometry (au)
	    O     0.0000000000   0.0000000000  -0.1241840862
	    H     0.0000000000  -1.4288883637   0.9854457831
	    H     0.0000000000   1.4288883637   0.9854457831
	Saving final (previous) structure.
			--------------------------
			 OPTKING Finished Execution 
			--------------------------

	Final optimized geometry and variables (in Angstrom):

	O
	H     1    0.957358
	H     1    0.957358     2  104.336416


*** PSI4 exiting successfully. Buy a developer a beer!
