    -----------------------------------------------------------------------
          PSI4: An Open-Source Ab Initio Electronic Structure Package
                              PSI 4.0.0-beta1 Driver

               Git: Rev 8268e5ba0276eef671d5bc4a44cf66fa46407463

    J. M. Turney, A. C. Simmonett, R. M. Parrish, E. G. Hohenstein,
    F. A. Evangelista, J. T. Fermann, B. J. Mintz, L. A. Burns, J. J. Wilke,
    M. L. Abrams, N. J. Russ, M. L. Leininger, C. L. Janssen, E. T. Seidl,
    W. D. Allen, H. F. Schaefer, R. A. King, E. F. Valeev, C. D. Sherrill,
    and T. D. Crawford, WIREs Comput. Mol. Sci., (2011) (doi: 10.1002/wcms.93)

                         Additional Contributions by
    A. E. DePrince, M. Saitow, U. Bozkaya, A. Yu. Sokolov
    -----------------------------------------------------------------------


    Using LocalCommunicator (Number of processes = 1)

    Memory level set to 256.000 MB

  ==> Input File <==

--------------------------------------------------------------------------
#! RHF cc-pVDZ energy for water, automatically scanning the symmetric stretch and bending coordinates
#! using Python's built-in loop mechanisms.  The geometry is apecified using a Z-matrix with variables
#! that are updated during the potential energy surface scan, and then the same procedure is performed
#! using polar coordinates, converted to Cartesian coordinates.

memory 250 mb

refENuc = [ 9.785885838936569, 9.780670106434425, 8.807297255042920,     #TEST
            8.802603095790996, 8.006633868220828, 8.002366450719077 ]    #TEST

refSCF  = [ -76.02132544789552, -76.02170973316878, -76.02148196836463,  #TEST
            -76.02145796257284, -75.99010402297635, -75.98979578551810 ] #TEST

# Define the points on the potential energy surface using standard Python list functions
Rvals = [ 0.9, 1.0, 1.1 ]
Avals = range(102, 106, 2)


# Start with a potentital energy scan in Z-matrix coordinates
molecule h2o {
    O
    H 1 R
    H 1 R 2 A
}

print_stdout(" Testing Z-matrix coordinates") #TEST

count = 0

set basis cc-pvdz
set scf e_convergence = 11

for R in Rvals:
    h2o.R = R
    for A in Avals:
        h2o.A = A
        thisenergy = energy('scf')
        compare_values(refENuc[count], h2o.nuclear_repulsion_energy(),                 #TEST
                       10, "Nuclear repulsion energy %d" % count)                      #TEST
        compare_values(refSCF[count], thisenergy, 10, "Reference energy %d" % count)   #TEST
        count = count + 1

# And now the same thing, using Python's trigonometry functions, and Cartesian input.  This time
# we want to reset the Cartesian positions every time the angles and bond lengths change, so we
# define the geometry inside the loops.  N.B. this requires the basis set to be re-specified after
# every change of geometry

count = 0

print_stdout(" Testing polar coordinates") #TEST

for R in Rvals:
    for A in Avals:
        molecule h2o {
            O   0.0    0.0    0.0
            H   0.0      R    0.0
            H   0.0  RCosA  RSinA
        }
        # The non-numeric entries above just define placeholders with names.  They still need
        # to be set, which we do below.
        h2o.R = R
        h2o.RCosA = R * math.cos(math.radians(A))
        h2o.RSinA = R * math.sin(math.radians(A))
        set basis cc-pvdz
        thisenergy = energy('scf')
        compare_values(refENuc[count], h2o.nuclear_repulsion_energy(),                 #TEST
                       10, "Nuclear repulsion energy %d" % count)                      #TEST
        compare_values(refSCF[count], thisenergy, 10, "Reference energy %d" % count)   #TEST
        count = count + 1
--------------------------------------------------------------------------

  Memory set to 250.000 MiB by Python script.
Setting geometry variable R to 0.900000
Setting geometry variable A to 102.000000

*** tstart() called on lawn-143-215-103-161.lawn.gatech.edu
*** at Fri Apr 27 13:51:54 2012

	There are an even number of electrons - assuming singlet.
	Specify the multiplicity with the MULTP option in the
	input if this is incorrect


         ---------------------------------------------------------
                                   SCF
            by Justin Turney, Rob Parrish, and Andy Simmonett
                              RHF Reference
                        1 Threads,    250 MiB Core
         ---------------------------------------------------------

  ==> Geometry <==

    Molecular point group: c2v

    Geometry (in Angstrom), charge = 0, multiplicity = 1:

       Center              X                  Y                   Z       
    ------------   -----------------  -----------------  -----------------
           O          0.000000000000     0.000000000000    -0.063387280631
           H          0.000000000000    -0.699431365311     0.503001071314
           H          0.000000000000     0.699431365311     0.503001071314

  Running in c2v symmetry.

  Nuclear repulsion =    9.785885838936570

  Charge       = 0
  Multiplicity = 1
  Electrons    = 10
  Nalpha       = 5
  Nbeta        = 5

  ==> Algorithm <==

  SCF Algorithm Type is PK.
  DIIS enabled.
  MOM disabled.
  Fractional occupation disabled.
  Guess Type is CORE.
  Energy threshold   = 1.00e-11
  Density threshold  = 1.00e-08
  Integral threshold = 0.00e+00

  ==> Primary Basis <==

  Basis Set: cc-pvdz
    Number of shells: 12
    Number of basis function: 24
    Number of Cartesian functions: 25
    Spherical Harmonics?: true
    Max angular momentum: 2

  ==> Pre-Iterations <==

  Minimum eigenvalue in the overlap matrix is 3.0154671590E-02.
  Using Symmetric Orthogonalization.
  SCF Guess: Core (One-Electron) Hamiltonian.

  Initial RHF energy:   -58.36805206727228

   -------------------------------------------------------
    Irrep   Nso     Nmo     Nalpha   Nbeta   Ndocc  Nsocc
   -------------------------------------------------------
     A1        11      11       3       3       3       0
     A2         2       2       0       0       0       0
     B1         4       4       1       1       1       0
     B2         7       7       1       1       1       0
   -------------------------------------------------------
    Total      24      24       5       5       5       0
   -------------------------------------------------------

  ==> Integral Setup <==

 MINTS: Wrapper to libmints.
   by Justin Turney

   Calculation information:
      Number of atoms:                   3
      Number of AO shells:              12
      Number of SO shells:               9
      Number of primitives:             32
      Number of atomic orbitals:        25
      Number of basis functions:        24

      Number of irreps:                  4
      Number of functions per irrep: [  11    2    4    7 ]

      Overlap, kinetic, potential, dipole, and quadrupole integrals
        stored in file 35.

      Computing two-electron integrals...done
      Computed 11412 non-zero two-electron integrals.
        Stored in file 33.

  ==> Iterations <==

                        Total Energy        Delta E     Density RMS

   @RHF iter   1:   -68.77629881138940   -1.04082e+01   0.00000e+00 
	Occupation by irrep:
	         A1    A2    B1    B2 
	DOCC [     3,    0,    0,    2 ]

   @RHF iter   2:   -69.98389083413205   -1.20759e+00   6.03634e-01 DIIS
	Occupation by irrep:
	         A1    A2    B1    B2 
	DOCC [     3,    0,    1,    1 ]

   @RHF iter   3:   -75.67879799275792   -5.69491e+00   5.72071e-01 DIIS
   @RHF iter   4:   -75.99167415820177   -3.12876e-01   1.96821e-02 DIIS
   @RHF iter   5:   -76.02106811368193   -2.93940e-02   9.17354e-03 DIIS
   @RHF iter   6:   -76.02129323872072   -2.25125e-04   1.25099e-03 DIIS
   @RHF iter   7:   -76.02132420928938   -3.09706e-05   4.21883e-04 DIIS
   @RHF iter   8:   -76.02132537893971   -1.16965e-06   8.79264e-05 DIIS
   @RHF iter   9:   -76.02132544752442   -6.85847e-08   1.55939e-05 DIIS
   @RHF iter  10:   -76.02132544787599   -3.51577e-10   1.61910e-06 DIIS
   @RHF iter  11:   -76.02132544789518   -1.91847e-11   2.63793e-07 DIIS
   @RHF iter  12:   -76.02132544789556   -3.83693e-13   3.89269e-08 DIIS

  ==> Post-Iterations <==

	Orbital Energies (a.u.)
	-----------------------

	Doubly Occupied:                                                      

	   1A1   -20.541265     2A1    -1.370437     1B2    -0.725895  
	   3A1    -0.582567     1B1    -0.498672  

	Virtual:                                                              

	   4A1     0.193806     2B2     0.264303     3B2     0.824413  
	   5A1     0.924420     6A1     1.162288     2B1     1.197331  
	   4B2     1.253681     7A1     1.415286     1A2     1.502177  
	   3B1     1.673607     8A1     1.852359     5B2     2.018415  
	   6B2     2.585824     9A1     2.650589     4B1     3.352827  
	   2A2     3.386871    10A1     3.595045    11A1     3.912861  
	   7B2     4.230440  

	Final Occupation by Irrep:
	         A1    A2    B1    B2 
	DOCC [     3,    0,    1,    1 ]

  Energy converged.

  @RHF Final Energy:   -76.02132544789556

   => Energetics <=

    Nuclear Repulsion Energy =          9.7858858389365704
    One-Electron Energy =            -124.1767482761231776
    Two-Electron Energy =              38.3695369892910563
    DFT Functional Energy =             0.0000000000000000
    Empirical Dispersion Energy =       0.0000000000000000
    Total Energy =                    -76.0213254478955491

  ==> Properties <==

  Nuclear Dipole Moment: (a.u.)
     X:     0.0000      Y:     0.0000      Z:     0.9428

  Electronic Dipole Moment: (a.u.)
     X:     0.0000      Y:     0.0000      Z:    -0.1422

  Dipole Moment: (a.u.)
     X:     0.0000      Y:     0.0000      Z:     0.8006     Total:     0.8006

  Dipole Moment: (Debye)
     X:     0.0000      Y:     0.0000      Z:     2.0350     Total:     2.0350


  Saving occupied orbitals to File 180.

*** tstop() called on lawn-143-215-103-161.lawn.gatech.edu at Fri Apr 27 13:51:54 2012
Module time:
	user time   =       0.08 seconds =       0.00 minutes
	system time =       0.01 seconds =       0.00 minutes
	total time  =          0 seconds =       0.00 minutes
Total time:
	user time   =       0.08 seconds =       0.00 minutes
	system time =       0.01 seconds =       0.00 minutes
	total time  =          0 seconds =       0.00 minutes
Setting geometry variable A to 104.000000

*** tstart() called on lawn-143-215-103-161.lawn.gatech.edu
*** at Fri Apr 27 13:51:54 2012

	There are an even number of electrons - assuming singlet.
	Specify the multiplicity with the MULTP option in the
	input if this is incorrect


         ---------------------------------------------------------
                                   SCF
            by Justin Turney, Rob Parrish, and Andy Simmonett
                              RHF Reference
                        1 Threads,    250 MiB Core
         ---------------------------------------------------------

  ==> Geometry <==

    Molecular point group: c2v

    Geometry (in Angstrom), charge = 0, multiplicity = 1:

       Center              X                  Y                   Z       
    ------------   -----------------  -----------------  -----------------
           O          0.000000000000     0.000000000000    -0.062011508391
           H          0.000000000000    -0.709209678246     0.492083819402
           H          0.000000000000     0.709209678246     0.492083819402

  Running in c2v symmetry.

  Nuclear repulsion =    9.780670106434428

  Charge       = 0
  Multiplicity = 1
  Electrons    = 10
  Nalpha       = 5
  Nbeta        = 5

  ==> Algorithm <==

  SCF Algorithm Type is PK.
  DIIS enabled.
  MOM disabled.
  Fractional occupation disabled.
  Guess Type is CORE.
  Energy threshold   = 1.00e-11
  Density threshold  = 1.00e-08
  Integral threshold = 0.00e+00

  ==> Primary Basis <==

  Basis Set: cc-pvdz
    Number of shells: 12
    Number of basis function: 24
    Number of Cartesian functions: 25
    Spherical Harmonics?: true
    Max angular momentum: 2

  ==> Pre-Iterations <==

  Minimum eigenvalue in the overlap matrix is 3.0308209013E-02.
  Using Symmetric Orthogonalization.
  SCF Guess: Core (One-Electron) Hamiltonian.

  Initial RHF energy:   -58.37199246272337

   -------------------------------------------------------
    Irrep   Nso     Nmo     Nalpha   Nbeta   Ndocc  Nsocc
   -------------------------------------------------------
     A1        11      11       3       3       3       0
     A2         2       2       0       0       0       0
     B1         4       4       1       1       1       0
     B2         7       7       1       1       1       0
   -------------------------------------------------------
    Total      24      24       5       5       5       0
   -------------------------------------------------------

  ==> Integral Setup <==

 MINTS: Wrapper to libmints.
   by Justin Turney

   Calculation information:
      Number of atoms:                   3
      Number of AO shells:              12
      Number of SO shells:               9
      Number of primitives:             32
      Number of atomic orbitals:        25
      Number of basis functions:        24

      Number of irreps:                  4
      Number of functions per irrep: [  11    2    4    7 ]

      Overlap, kinetic, potential, dipole, and quadrupole integrals
        stored in file 35.

      Computing two-electron integrals...done
      Computed 11412 non-zero two-electron integrals.
        Stored in file 33.

  ==> Iterations <==

                        Total Energy        Delta E     Density RMS

   @RHF iter   1:   -68.78141553555835   -1.04094e+01   0.00000e+00 
	Occupation by irrep:
	         A1    A2    B1    B2 
	DOCC [     3,    0,    0,    2 ]

   @RHF iter   2:   -70.01688263578113   -1.23547e+00   5.97632e-01 DIIS
	Occupation by irrep:
	         A1    A2    B1    B2 
	DOCC [     3,    0,    1,    1 ]

   @RHF iter   3:   -75.67969251536523   -5.66281e+00   5.65813e-01 DIIS
   @RHF iter   4:   -75.99208923697364   -3.12397e-01   1.96362e-02 DIIS
   @RHF iter   5:   -76.02145414043243   -2.93649e-02   9.12410e-03 DIIS
   @RHF iter   6:   -76.02167797879851   -2.23838e-04   1.22242e-03 DIIS
   @RHF iter   7:   -76.02170850267196   -3.05239e-05   4.16770e-04 DIIS
   @RHF iter   8:   -76.02170966471873   -1.16205e-06   8.75884e-05 DIIS
   @RHF iter   9:   -76.02170973276107   -6.80423e-08   1.57852e-05 DIIS
   @RHF iter  10:   -76.02170973314675   -3.85683e-10   1.72065e-06 DIIS
   @RHF iter  11:   -76.02170973316831   -2.15579e-11   2.86013e-07 DIIS
   @RHF iter  12:   -76.02170973316879   -4.83169e-13   4.07394e-08 DIIS

  ==> Post-Iterations <==

	Orbital Energies (a.u.)
	-----------------------

	Doubly Occupied:                                                      

	   1A1   -20.540311     2A1    -1.368599     1B2    -0.730278  
	   3A1    -0.578351     1B1    -0.498029  

	Virtual:                                                              

	   4A1     0.194413     2B2     0.263875     3B2     0.831607  
	   5A1     0.914881     6A1     1.159565     2B1     1.197741  
	   4B2     1.251838     7A1     1.433606     1A2     1.494790  
	   3B1     1.686267     8A1     1.856647     5B2     2.005229  
	   6B2     2.592530     9A1     2.645351     4B1     3.340977  
	   2A2     3.395191    10A1     3.588460    11A1     3.929927  
	   7B2     4.217613  

	Final Occupation by Irrep:
	         A1    A2    B1    B2 
	DOCC [     3,    0,    1,    1 ]

  Energy converged.

  @RHF Final Energy:   -76.02170973316879

   => Energetics <=

    Nuclear Repulsion Energy =          9.7806701064344281
    One-Electron Energy =            -124.1736229693665905
    Two-Electron Energy =              38.3712431297633643
    DFT Functional Energy =             0.0000000000000000
    Empirical Dispersion Energy =       0.0000000000000000
    Total Energy =                    -76.0217097331687910

  ==> Properties <==

  Nuclear Dipole Moment: (a.u.)
     X:     0.0000      Y:     0.0000      Z:     0.9223

  Electronic Dipole Moment: (a.u.)
     X:     0.0000      Y:     0.0000      Z:    -0.1331

  Dipole Moment: (a.u.)
     X:     0.0000      Y:     0.0000      Z:     0.7892     Total:     0.7892

  Dipole Moment: (Debye)
     X:     0.0000      Y:     0.0000      Z:     2.0059     Total:     2.0059


  Saving occupied orbitals to File 180.

*** tstop() called on lawn-143-215-103-161.lawn.gatech.edu at Fri Apr 27 13:51:54 2012
Module time:
	user time   =       0.07 seconds =       0.00 minutes
	system time =       0.01 seconds =       0.00 minutes
	total time  =          0 seconds =       0.00 minutes
Total time:
	user time   =       0.15 seconds =       0.00 minutes
	system time =       0.02 seconds =       0.00 minutes
	total time  =          0 seconds =       0.00 minutes
Setting geometry variable R to 1.000000
Setting geometry variable A to 102.000000

*** tstart() called on lawn-143-215-103-161.lawn.gatech.edu
*** at Fri Apr 27 13:51:54 2012

	There are an even number of electrons - assuming singlet.
	Specify the multiplicity with the MULTP option in the
	input if this is incorrect


         ---------------------------------------------------------
                                   SCF
            by Justin Turney, Rob Parrish, and Andy Simmonett
                              RHF Reference
                        1 Threads,    250 MiB Core
         ---------------------------------------------------------

  ==> Geometry <==

    Molecular point group: c2v

    Geometry (in Angstrom), charge = 0, multiplicity = 1:

       Center              X                  Y                   Z       
    ------------   -----------------  -----------------  -----------------
           O          0.000000000000     0.000000000000    -0.070430311812
           H          0.000000000000    -0.777145961457     0.558890079238
           H          0.000000000000     0.777145961457     0.558890079238

  Running in c2v symmetry.

  Nuclear repulsion =    8.807297255042913

  Charge       = 0
  Multiplicity = 1
  Electrons    = 10
  Nalpha       = 5
  Nbeta        = 5

  ==> Algorithm <==

  SCF Algorithm Type is PK.
  DIIS enabled.
  MOM disabled.
  Fractional occupation disabled.
  Guess Type is CORE.
  Energy threshold   = 1.00e-11
  Density threshold  = 1.00e-08
  Integral threshold = 0.00e+00

  ==> Primary Basis <==

  Basis Set: cc-pvdz
    Number of shells: 12
    Number of basis function: 24
    Number of Cartesian functions: 25
    Spherical Harmonics?: true
    Max angular momentum: 2

  ==> Pre-Iterations <==

  Minimum eigenvalue in the overlap matrix is 3.6941792286E-02.
  Using Symmetric Orthogonalization.
  SCF Guess: Core (One-Electron) Hamiltonian.

  Initial RHF energy:   -58.68439505769983

   -------------------------------------------------------
    Irrep   Nso     Nmo     Nalpha   Nbeta   Ndocc  Nsocc
   -------------------------------------------------------
     A1        11      11       3       3       3       0
     A2         2       2       0       0       0       0
     B1         4       4       1       1       1       0
     B2         7       7       1       1       1       0
   -------------------------------------------------------
    Total      24      24       5       5       5       0
   -------------------------------------------------------

  ==> Integral Setup <==

 MINTS: Wrapper to libmints.
   by Justin Turney

   Calculation information:
      Number of atoms:                   3
      Number of AO shells:              12
      Number of SO shells:               9
      Number of primitives:             32
      Number of atomic orbitals:        25
      Number of basis functions:        24

      Number of irreps:                  4
      Number of functions per irrep: [  11    2    4    7 ]

      Overlap, kinetic, potential, dipole, and quadrupole integrals
        stored in file 35.

      Computing two-electron integrals...done
      Computed 11412 non-zero two-electron integrals.
        Stored in file 33.

  ==> Iterations <==

                        Total Energy        Delta E     Density RMS

   @RHF iter   1:   -68.91755307295871   -1.02332e+01   0.00000e+00 
	Occupation by irrep:
	         A1    A2    B1    B2 
	DOCC [     3,    0,    0,    2 ]

   @RHF iter   2:   -69.83025857584151   -9.12706e-01   5.35336e-01 DIIS
	Occupation by irrep:
	         A1    A2    B1    B2 
	DOCC [     3,    0,    1,    1 ]

   @RHF iter   3:   -75.76448581810409   -5.93423e+00   5.02523e-01 DIIS
   @RHF iter   4:   -75.99915525781152   -2.34669e-01   1.67864e-02 DIIS
   @RHF iter   5:   -76.02115693861671   -2.20017e-02   7.86846e-03 DIIS
   @RHF iter   6:   -76.02143016820672   -2.73230e-04   1.40558e-03 DIIS
   @RHF iter   7:   -76.02147998701427   -4.98188e-05   4.91727e-04 DIIS
   @RHF iter   8:   -76.02148186108853   -1.87407e-06   1.10691e-04 DIIS
   @RHF iter   9:   -76.02148196733913   -1.06251e-07   1.77739e-05 DIIS
   @RHF iter  10:   -76.02148196829113   -9.51999e-10   2.69692e-06 DIIS
   @RHF iter  11:   -76.02148196836239   -7.12674e-11   5.67010e-07 DIIS
   @RHF iter  12:   -76.02148196836460   -2.20268e-12   8.50195e-08 DIIS
   @RHF iter  13:   -76.02148196836464   -4.26326e-14   1.58685e-08 DIIS

  ==> Post-Iterations <==

	Orbital Energies (a.u.)
	-----------------------

	Doubly Occupied:                                                      

	   1A1   -20.559297     2A1    -1.318055     1B2    -0.672659  
	   3A1    -0.563762     1B1    -0.491356  

	Virtual:                                                              

	   4A1     0.177648     2B2     0.249584     3B2     0.752466  
	   5A1     0.826526     6A1     1.168108     2B1     1.197816  
	   4B2     1.259344     7A1     1.429053     1A2     1.473972  
	   3B1     1.654946     8A1     1.871992     5B2     1.903361  
	   6B2     2.350086     9A1     2.392036     4B1     3.260287  
	   2A2     3.289015    10A1     3.461392    11A1     3.806529  
	   7B2     4.111258  

	Final Occupation by Irrep:
	         A1    A2    B1    B2 
	DOCC [     3,    0,    1,    1 ]

  Energy converged.

  @RHF Final Energy:   -76.02148196836464

   => Energetics <=

    Nuclear Repulsion Energy =          8.8072972550429132
    One-Electron Energy =            -122.4473018689192259
    Two-Electron Energy =              37.6185226455116677
    DFT Functional Energy =             0.0000000000000000
    Empirical Dispersion Energy =       0.0000000000000000
    Total Energy =                    -76.0214819683646397

  ==> Properties <==

  Nuclear Dipole Moment: (a.u.)
     X:     0.0000      Y:     0.0000      Z:     1.0475

  Electronic Dipole Moment: (a.u.)
     X:     0.0000      Y:     0.0000      Z:    -0.2080

  Dipole Moment: (a.u.)
     X:     0.0000      Y:     0.0000      Z:     0.8395     Total:     0.8395

  Dipole Moment: (Debye)
     X:     0.0000      Y:     0.0000      Z:     2.1338     Total:     2.1338


  Saving occupied orbitals to File 180.

*** tstop() called on lawn-143-215-103-161.lawn.gatech.edu at Fri Apr 27 13:51:54 2012
Module time:
	user time   =       0.07 seconds =       0.00 minutes
	system time =       0.01 seconds =       0.00 minutes
	total time  =          0 seconds =       0.00 minutes
Total time:
	user time   =       0.23 seconds =       0.00 minutes
	system time =       0.03 seconds =       0.00 minutes
	total time  =          0 seconds =       0.00 minutes
Setting geometry variable A to 104.000000

*** tstart() called on lawn-143-215-103-161.lawn.gatech.edu
*** at Fri Apr 27 13:51:54 2012

	There are an even number of electrons - assuming singlet.
	Specify the multiplicity with the MULTP option in the
	input if this is incorrect


         ---------------------------------------------------------
                                   SCF
            by Justin Turney, Rob Parrish, and Andy Simmonett
                              RHF Reference
                        1 Threads,    250 MiB Core
         ---------------------------------------------------------

  ==> Geometry <==

    Molecular point group: c2v

    Geometry (in Angstrom), charge = 0, multiplicity = 1:

       Center              X                  Y                   Z       
    ------------   -----------------  -----------------  -----------------
           O          0.000000000000     0.000000000000    -0.068901675990
           H          0.000000000000    -0.788010753607     0.546759799336
           H          0.000000000000     0.788010753607     0.546759799336

  Running in c2v symmetry.

  Nuclear repulsion =    8.802603095790987

  Charge       = 0
  Multiplicity = 1
  Electrons    = 10
  Nalpha       = 5
  Nbeta        = 5

  ==> Algorithm <==

  SCF Algorithm Type is PK.
  DIIS enabled.
  MOM disabled.
  Fractional occupation disabled.
  Guess Type is CORE.
  Energy threshold   = 1.00e-11
  Density threshold  = 1.00e-08
  Integral threshold = 0.00e+00

  ==> Primary Basis <==

  Basis Set: cc-pvdz
    Number of shells: 12
    Number of basis function: 24
    Number of Cartesian functions: 25
    Spherical Harmonics?: true
    Max angular momentum: 2

  ==> Pre-Iterations <==

  Minimum eigenvalue in the overlap matrix is 3.7289488642E-02.
  Using Symmetric Orthogonalization.
  SCF Guess: Core (One-Electron) Hamiltonian.

  Initial RHF energy:   -58.68823000525609

   -------------------------------------------------------
    Irrep   Nso     Nmo     Nalpha   Nbeta   Ndocc  Nsocc
   -------------------------------------------------------
     A1        11      11       3       3       3       0
     A2         2       2       0       0       0       0
     B1         4       4       1       1       1       0
     B2         7       7       1       1       1       0
   -------------------------------------------------------
    Total      24      24       5       5       5       0
   -------------------------------------------------------

  ==> Integral Setup <==

 MINTS: Wrapper to libmints.
   by Justin Turney

   Calculation information:
      Number of atoms:                   3
      Number of AO shells:              12
      Number of SO shells:               9
      Number of primitives:             32
      Number of atomic orbitals:        25
      Number of basis functions:        24

      Number of irreps:                  4
      Number of functions per irrep: [  11    2    4    7 ]

      Overlap, kinetic, potential, dipole, and quadrupole integrals
        stored in file 35.

      Computing two-electron integrals...done
      Computed 11412 non-zero two-electron integrals.
        Stored in file 33.

  ==> Iterations <==

                        Total Energy        Delta E     Density RMS

   @RHF iter   1:   -68.92227214648962   -1.02340e+01   0.00000e+00 
	Occupation by irrep:
	         A1    A2    B1    B2 
	DOCC [     3,    0,    0,    2 ]

   @RHF iter   2:   -69.86892756379982   -9.46655e-01   5.30789e-01 DIIS
	Occupation by irrep:
	         A1    A2    B1    B2 
	DOCC [     3,    0,    1,    1 ]

   @RHF iter   3:   -75.76496814376456   -5.89604e+00   4.97703e-01 DIIS
   @RHF iter   4:   -75.99912911161148   -2.34161e-01   1.67254e-02 DIIS
   @RHF iter   5:   -76.02113728786983   -2.20082e-02   7.83068e-03 DIIS
   @RHF iter   6:   -76.02140668361962   -2.69396e-04   1.37860e-03 DIIS
   @RHF iter   7:   -76.02145596794232   -4.92843e-05   4.89662e-04 DIIS
   @RHF iter   8:   -76.02145785590764   -1.88797e-06   1.11416e-04 DIIS
   @RHF iter   9:   -76.02145796141347   -1.05506e-07   1.79910e-05 DIIS
   @RHF iter  10:   -76.02145796249097   -1.07750e-09   2.88925e-06 DIIS
   @RHF iter  11:   -76.02145796257045   -7.94813e-11   6.08247e-07 DIIS
   @RHF iter  12:   -76.02145796257282   -2.37321e-12   8.38581e-08 DIIS
   @RHF iter  13:   -76.02145796257287   -4.26326e-14   1.55823e-08 DIIS

  ==> Post-Iterations <==

	Orbital Energies (a.u.)
	-----------------------

	Doubly Occupied:                                                      

	   1A1   -20.558142     2A1    -1.316554     1B2    -0.676204  
	   3A1    -0.559731     1B1    -0.490580  

	Virtual:                                                              

	   4A1     0.177946     2B2     0.249509     3B2     0.758670  
	   5A1     0.818232     6A1     1.166509     2B1     1.198450  
	   4B2     1.257045     7A1     1.447949     1A2     1.467616  
	   3B1     1.665402     8A1     1.876097     5B2     1.892497  
	   6B2     2.353807     9A1     2.388994     4B1     3.251119  
	   2A2     3.296062    10A1     3.455901    11A1     3.817993  
	   7B2     4.101599  

	Final Occupation by Irrep:
	         A1    A2    B1    B2 
	DOCC [     3,    0,    1,    1 ]

  Energy converged.

  @RHF Final Energy:   -76.02145796257287

   => Energetics <=

    Nuclear Repulsion Energy =          8.8026030957909871
    One-Electron Energy =            -122.4456998510843277
    Two-Electron Energy =              37.6216387927204750
    DFT Functional Energy =             0.0000000000000000
    Empirical Dispersion Energy =       0.0000000000000000
    Total Energy =                    -76.0214579625728675

  ==> Properties <==

  Nuclear Dipole Moment: (a.u.)
     X:     0.0000      Y:     0.0000      Z:     1.0248

  Electronic Dipole Moment: (a.u.)
     X:     0.0000      Y:     0.0000      Z:    -0.1973

  Dipole Moment: (a.u.)
     X:     0.0000      Y:     0.0000      Z:     0.8275     Total:     0.8275

  Dipole Moment: (Debye)
     X:     0.0000      Y:     0.0000      Z:     2.1032     Total:     2.1032


  Saving occupied orbitals to File 180.

*** tstop() called on lawn-143-215-103-161.lawn.gatech.edu at Fri Apr 27 13:51:54 2012
Module time:
	user time   =       0.08 seconds =       0.00 minutes
	system time =       0.00 seconds =       0.00 minutes
	total time  =          0 seconds =       0.00 minutes
Total time:
	user time   =       0.31 seconds =       0.01 minutes
	system time =       0.03 seconds =       0.00 minutes
	total time  =          0 seconds =       0.00 minutes
Setting geometry variable R to 1.100000
Setting geometry variable A to 102.000000

*** tstart() called on lawn-143-215-103-161.lawn.gatech.edu
*** at Fri Apr 27 13:51:54 2012

	There are an even number of electrons - assuming singlet.
	Specify the multiplicity with the MULTP option in the
	input if this is incorrect


         ---------------------------------------------------------
                                   SCF
            by Justin Turney, Rob Parrish, and Andy Simmonett
                              RHF Reference
                        1 Threads,    250 MiB Core
         ---------------------------------------------------------

  ==> Geometry <==

    Molecular point group: c2v

    Geometry (in Angstrom), charge = 0, multiplicity = 1:

       Center              X                  Y                   Z       
    ------------   -----------------  -----------------  -----------------
           O          0.000000000000     0.000000000000    -0.077473342993
           H          0.000000000000    -0.854860557603     0.614779087162
           H          0.000000000000     0.854860557603     0.614779087162

  Running in c2v symmetry.

  Nuclear repulsion =    8.006633868220828

  Charge       = 0
  Multiplicity = 1
  Electrons    = 10
  Nalpha       = 5
  Nbeta        = 5

  ==> Algorithm <==

  SCF Algorithm Type is PK.
  DIIS enabled.
  MOM disabled.
  Fractional occupation disabled.
  Guess Type is CORE.
  Energy threshold   = 1.00e-11
  Density threshold  = 1.00e-08
  Integral threshold = 0.00e+00

  ==> Primary Basis <==

  Basis Set: cc-pvdz
    Number of shells: 12
    Number of basis function: 24
    Number of Cartesian functions: 25
    Spherical Harmonics?: true
    Max angular momentum: 2

  ==> Pre-Iterations <==

  Minimum eigenvalue in the overlap matrix is 4.5556871380E-02.
  Using Symmetric Orthogonalization.
  SCF Guess: Core (One-Electron) Hamiltonian.

  Initial RHF energy:   -58.95474480855718

   -------------------------------------------------------
    Irrep   Nso     Nmo     Nalpha   Nbeta   Ndocc  Nsocc
   -------------------------------------------------------
     A1        11      11       3       3       3       0
     A2         2       2       0       0       0       0
     B1         4       4       1       1       1       0
     B2         7       7       1       1       1       0
   -------------------------------------------------------
    Total      24      24       5       5       5       0
   -------------------------------------------------------

  ==> Integral Setup <==

 MINTS: Wrapper to libmints.
   by Justin Turney

   Calculation information:
      Number of atoms:                   3
      Number of AO shells:              12
      Number of SO shells:               9
      Number of primitives:             32
      Number of atomic orbitals:        25
      Number of basis functions:        24

      Number of irreps:                  4
      Number of functions per irrep: [  11    2    4    7 ]

      Overlap, kinetic, potential, dipole, and quadrupole integrals
        stored in file 35.

      Computing two-electron integrals...done
      Computed 11412 non-zero two-electron integrals.
        Stored in file 33.

  ==> Iterations <==

                        Total Energy        Delta E     Density RMS

   @RHF iter   1:   -68.97620369011101   -1.00215e+01   0.00000e+00 
	Occupation by irrep:
	         A1    A2    B1    B2 
	DOCC [     3,    0,    0,    2 ]

   @RHF iter   2:   -69.60114813385448   -6.24944e-01   4.85523e-01 DIIS
	Occupation by irrep:
	         A1    A2    B1    B2 
	DOCC [     3,    0,    1,    1 ]

   @RHF iter   3:   -75.79127292794536   -6.19012e+00   4.50608e-01 DIIS
   @RHF iter   4:   -75.97246445305649   -1.81192e-01   1.48460e-02 DIIS
   @RHF iter   5:   -75.98967207289766   -1.72076e-02   7.02443e-03 DIIS
   @RHF iter   6:   -75.99002378022719   -3.51707e-04   1.56015e-03 DIIS
   @RHF iter   7:   -75.99010149398707   -7.77138e-05   5.62221e-04 DIIS
   @RHF iter   8:   -75.99010386094442   -2.36696e-06   1.24519e-04 DIIS
   @RHF iter   9:   -75.99010402042219   -1.59478e-07   1.98559e-05 DIIS
   @RHF iter  10:   -75.99010402273133   -2.30914e-09   4.22280e-06 DIIS
   @RHF iter  11:   -75.99010402296929   -2.37961e-10   1.10944e-06 DIIS
   @RHF iter  12:   -75.99010402297631   -7.02016e-12   1.65212e-07 DIIS
   @RHF iter  13:   -75.99010402297631    0.00000e+00   2.05639e-08 DIIS

  ==> Post-Iterations <==

	Orbital Energies (a.u.)
	-----------------------

	Doubly Occupied:                                                      

	   1A1   -20.576062     2A1    -1.278884     1B2    -0.627092  
	   3A1    -0.545440     1B1    -0.487446  

	Virtual:                                                              

	   4A1     0.157732     2B2     0.229110     3B2     0.699477  
	   5A1     0.751389     6A1     1.172048     2B1     1.185504  
	   4B2     1.270756     1A2     1.456034     7A1     1.456677  
	   3B1     1.650525     5B2     1.812087     8A1     1.889074  
	   6B2     2.147153     9A1     2.200355     4B1     3.179085  
	   2A2     3.204010    10A1     3.333145    11A1     3.713652  
	   7B2     3.992005  

	Final Occupation by Irrep:
	         A1    A2    B1    B2 
	DOCC [     3,    0,    1,    1 ]

  Energy converged.

  @RHF Final Energy:   -75.99010402297631

   => Energetics <=

    Nuclear Repulsion Energy =          8.0066338682208276
    One-Electron Energy =            -120.9636287035884976
    Two-Electron Energy =              36.9668908123913482
    DFT Functional Energy =             0.0000000000000000
    Empirical Dispersion Energy =       0.0000000000000000
    Total Energy =                    -75.9901040229763112

  ==> Properties <==

  Nuclear Dipole Moment: (a.u.)
     X:     0.0000      Y:    -0.0000      Z:     1.1523

  Electronic Dipole Moment: (a.u.)
     X:     0.0000      Y:     0.0000      Z:    -0.2832

  Dipole Moment: (a.u.)
     X:     0.0000      Y:    -0.0000      Z:     0.8691     Total:     0.8691

  Dipole Moment: (Debye)
     X:     0.0000      Y:    -0.0000      Z:     2.2090     Total:     2.2090


  Saving occupied orbitals to File 180.

*** tstop() called on lawn-143-215-103-161.lawn.gatech.edu at Fri Apr 27 13:51:54 2012
Module time:
	user time   =       0.08 seconds =       0.00 minutes
	system time =       0.01 seconds =       0.00 minutes
	total time  =          0 seconds =       0.00 minutes
Total time:
	user time   =       0.39 seconds =       0.01 minutes
	system time =       0.04 seconds =       0.00 minutes
	total time  =          0 seconds =       0.00 minutes
Setting geometry variable A to 104.000000

*** tstart() called on lawn-143-215-103-161.lawn.gatech.edu
*** at Fri Apr 27 13:51:54 2012

	There are an even number of electrons - assuming singlet.
	Specify the multiplicity with the MULTP option in the
	input if this is incorrect


         ---------------------------------------------------------
                                   SCF
            by Justin Turney, Rob Parrish, and Andy Simmonett
                              RHF Reference
                        1 Threads,    250 MiB Core
         ---------------------------------------------------------

  ==> Geometry <==

    Molecular point group: c2v

    Geometry (in Angstrom), charge = 0, multiplicity = 1:

       Center              X                  Y                   Z       
    ------------   -----------------  -----------------  -----------------
           O          0.000000000000     0.000000000000    -0.075791843589
           H          0.000000000000    -0.866811828967     0.601435779270
           H          0.000000000000     0.866811828967     0.601435779270

  Running in c2v symmetry.

  Nuclear repulsion =    8.002366450719078

  Charge       = 0
  Multiplicity = 1
  Electrons    = 10
  Nalpha       = 5
  Nbeta        = 5

  ==> Algorithm <==

  SCF Algorithm Type is PK.
  DIIS enabled.
  MOM disabled.
  Fractional occupation disabled.
  Guess Type is CORE.
  Energy threshold   = 1.00e-11
  Density threshold  = 1.00e-08
  Integral threshold = 0.00e+00

  ==> Primary Basis <==

  Basis Set: cc-pvdz
    Number of shells: 12
    Number of basis function: 24
    Number of Cartesian functions: 25
    Spherical Harmonics?: true
    Max angular momentum: 2

  ==> Pre-Iterations <==

  Minimum eigenvalue in the overlap matrix is 4.6103807002E-02.
  Using Symmetric Orthogonalization.
  SCF Guess: Core (One-Electron) Hamiltonian.

  Initial RHF energy:   -58.95851518677449

   -------------------------------------------------------
    Irrep   Nso     Nmo     Nalpha   Nbeta   Ndocc  Nsocc
   -------------------------------------------------------
     A1        11      11       3       3       3       0
     A2         2       2       0       0       0       0
     B1         4       4       1       1       1       0
     B2         7       7       1       1       1       0
   -------------------------------------------------------
    Total      24      24       5       5       5       0
   -------------------------------------------------------

  ==> Integral Setup <==

 MINTS: Wrapper to libmints.
   by Justin Turney

   Calculation information:
      Number of atoms:                   3
      Number of AO shells:              12
      Number of SO shells:               9
      Number of primitives:             32
      Number of atomic orbitals:        25
      Number of basis functions:        24

      Number of irreps:                  4
      Number of functions per irrep: [  11    2    4    7 ]

      Overlap, kinetic, potential, dipole, and quadrupole integrals
        stored in file 35.

      Computing two-electron integrals...done
      Computed 11412 non-zero two-electron integrals.
        Stored in file 33.

  ==> Iterations <==

                        Total Energy        Delta E     Density RMS

   @RHF iter   1:   -68.98003273414304   -1.00215e+01   0.00000e+00 
	Occupation by irrep:
	         A1    A2    B1    B2 
	DOCC [     3,    0,    0,    2 ]

   @RHF iter   2:   -69.64725442845804   -6.67222e-01   4.81743e-01 DIIS
	Occupation by irrep:
	         A1    A2    B1    B2 
	DOCC [     3,    0,    1,    1 ]

   @RHF iter   3:   -75.79192914624529   -6.14467e+00   4.46512e-01 DIIS
   @RHF iter   4:   -75.97218922804178   -1.80260e-01   1.47618e-02 DIIS
   @RHF iter   5:   -75.98936905846088   -1.71798e-02   6.99075e-03 DIIS
   @RHF iter   6:   -75.98971633493080   -3.47276e-04   1.53750e-03 DIIS
   @RHF iter   7:   -75.98979323982246   -7.69049e-05   5.61904e-04 DIIS
   @RHF iter   8:   -75.98979562563628   -2.38581e-06   1.25420e-04 DIIS
   @RHF iter   9:   -75.98979578276082   -1.57125e-07   1.98865e-05 DIIS
   @RHF iter  10:   -75.98979578525649   -2.49567e-09   4.41497e-06 DIIS
   @RHF iter  11:   -75.98979578551115   -2.54659e-10   1.15832e-06 DIIS
   @RHF iter  12:   -75.98979578551817   -7.02016e-12   1.58602e-07 DIIS
   @RHF iter  13:   -75.98979578551815    1.42109e-14   2.00338e-08 DIIS

  ==> Post-Iterations <==

	Orbital Energies (a.u.)
	-----------------------

	Doubly Occupied:                                                      

	   1A1   -20.574752     2A1    -1.277566     1B2    -0.629911  
	   3A1    -0.541684     1B1    -0.486545  

	Virtual:                                                              

	   4A1     0.157621     2B2     0.229513     3B2     0.704679  
	   5A1     0.744562     6A1     1.170810     2B1     1.186420  
	   4B2     1.268027     1A2     1.450914     7A1     1.473927  
	   3B1     1.658468     5B2     1.804244     8A1     1.891430  
	   6B2     2.149116     9A1     2.200244     4B1     3.172600  
	   2A2     3.209688    10A1     3.328097    11A1     3.721354  
	   7B2     3.985472  

	Final Occupation by Irrep:
	         A1    A2    B1    B2 
	DOCC [     3,    0,    1,    1 ]

  Energy converged.

  @RHF Final Energy:   -75.98979578551815

   => Energetics <=

    Nuclear Repulsion Energy =          8.0023664507190784
    One-Electron Energy =            -120.9634075191386984
    Two-Electron Energy =              36.9712452829014708
    DFT Functional Energy =             0.0000000000000000
    Empirical Dispersion Energy =       0.0000000000000000
    Total Energy =                    -75.9897957855181403

  ==> Properties <==

  Nuclear Dipole Moment: (a.u.)
     X:     0.0000      Y:     0.0000      Z:     1.1273

  Electronic Dipole Moment: (a.u.)
     X:     0.0000      Y:     0.0000      Z:    -0.2709

  Dipole Moment: (a.u.)
     X:     0.0000      Y:     0.0000      Z:     0.8564     Total:     0.8564

  Dipole Moment: (Debye)
     X:     0.0000      Y:     0.0000      Z:     2.1766     Total:     2.1766


  Saving occupied orbitals to File 180.

*** tstop() called on lawn-143-215-103-161.lawn.gatech.edu at Fri Apr 27 13:51:54 2012
Module time:
	user time   =       0.08 seconds =       0.00 minutes
	system time =       0.01 seconds =       0.00 minutes
	total time  =          0 seconds =       0.00 minutes
Total time:
	user time   =       0.47 seconds =       0.01 minutes
	system time =       0.05 seconds =       0.00 minutes
	total time  =          0 seconds =       0.00 minutes
Setting geometry variable R to 0.900000
Setting geometry variable RCosA to -0.187121
Setting geometry variable RSinA to 0.880333

*** tstart() called on lawn-143-215-103-161.lawn.gatech.edu
*** at Fri Apr 27 13:51:54 2012

	There are an even number of electrons - assuming singlet.
	Specify the multiplicity with the MULTP option in the
	input if this is incorrect


         ---------------------------------------------------------
                                   SCF
            by Justin Turney, Rob Parrish, and Andy Simmonett
                              RHF Reference
                        1 Threads,    250 MiB Core
         ---------------------------------------------------------

  ==> Geometry <==

    Molecular point group: c2v

    Geometry (in Angstrom), charge = 0, multiplicity = 1:

       Center              X                  Y                   Z       
    ------------   -----------------  -----------------  -----------------
           O          0.000000000000     0.000000000000    -0.063387280631
           H         -0.000000000000     0.699431365311     0.503001071314
           H          0.000000000000    -0.699431365311     0.503001071314

  Running in c2v symmetry.

  Nuclear repulsion =    9.785885838936570

  Charge       = 0
  Multiplicity = 1
  Electrons    = 10
  Nalpha       = 5
  Nbeta        = 5

  ==> Algorithm <==

  SCF Algorithm Type is PK.
  DIIS enabled.
  MOM disabled.
  Fractional occupation disabled.
  Guess Type is CORE.
  Energy threshold   = 1.00e-11
  Density threshold  = 1.00e-08
  Integral threshold = 0.00e+00

  ==> Primary Basis <==

  Basis Set: cc-pvdz
    Number of shells: 12
    Number of basis function: 24
    Number of Cartesian functions: 25
    Spherical Harmonics?: true
    Max angular momentum: 2

  ==> Pre-Iterations <==

  Minimum eigenvalue in the overlap matrix is 3.0154671590E-02.
  Using Symmetric Orthogonalization.
  SCF Guess: Core (One-Electron) Hamiltonian.

  Initial RHF energy:   -58.36805206727225

   -------------------------------------------------------
    Irrep   Nso     Nmo     Nalpha   Nbeta   Ndocc  Nsocc
   -------------------------------------------------------
     A1        11      11       3       3       3       0
     A2         2       2       0       0       0       0
     B1         4       4       1       1       1       0
     B2         7       7       1       1       1       0
   -------------------------------------------------------
    Total      24      24       5       5       5       0
   -------------------------------------------------------

  ==> Integral Setup <==

 MINTS: Wrapper to libmints.
   by Justin Turney

   Calculation information:
      Number of atoms:                   3
      Number of AO shells:              12
      Number of SO shells:               9
      Number of primitives:             32
      Number of atomic orbitals:        25
      Number of basis functions:        24

      Number of irreps:                  4
      Number of functions per irrep: [  11    2    4    7 ]

      Overlap, kinetic, potential, dipole, and quadrupole integrals
        stored in file 35.

      Computing two-electron integrals...done
      Computed 11412 non-zero two-electron integrals.
        Stored in file 33.

  ==> Iterations <==

                        Total Energy        Delta E     Density RMS

   @RHF iter   1:   -68.77629881138949   -1.04082e+01   0.00000e+00 
	Occupation by irrep:
	         A1    A2    B1    B2 
	DOCC [     3,    0,    0,    2 ]

   @RHF iter   2:   -69.98389083413203   -1.20759e+00   6.03634e-01 DIIS
	Occupation by irrep:
	         A1    A2    B1    B2 
	DOCC [     3,    0,    1,    1 ]

   @RHF iter   3:   -75.67879799275777   -5.69491e+00   5.72071e-01 DIIS
   @RHF iter   4:   -75.99167415820169   -3.12876e-01   1.96821e-02 DIIS
   @RHF iter   5:   -76.02106811368182   -2.93940e-02   9.17354e-03 DIIS
   @RHF iter   6:   -76.02129323872062   -2.25125e-04   1.25099e-03 DIIS
   @RHF iter   7:   -76.02132420928932   -3.09706e-05   4.21883e-04 DIIS
   @RHF iter   8:   -76.02132537893968   -1.16965e-06   8.79264e-05 DIIS
   @RHF iter   9:   -76.02132544752430   -6.85846e-08   1.55939e-05 DIIS
   @RHF iter  10:   -76.02132544787590   -3.51591e-10   1.61910e-06 DIIS
   @RHF iter  11:   -76.02132544789499   -1.90994e-11   2.63793e-07 DIIS
   @RHF iter  12:   -76.02132544789546   -4.68958e-13   3.89269e-08 DIIS

  ==> Post-Iterations <==

	Orbital Energies (a.u.)
	-----------------------

	Doubly Occupied:                                                      

	   1A1   -20.541265     2A1    -1.370437     1B2    -0.725895  
	   3A1    -0.582567     1B1    -0.498672  

	Virtual:                                                              

	   4A1     0.193806     2B2     0.264303     3B2     0.824413  
	   5A1     0.924420     6A1     1.162288     2B1     1.197331  
	   4B2     1.253681     7A1     1.415286     1A2     1.502177  
	   3B1     1.673607     8A1     1.852359     5B2     2.018415  
	   6B2     2.585824     9A1     2.650589     4B1     3.352827  
	   2A2     3.386871    10A1     3.595045    11A1     3.912861  
	   7B2     4.230440  

	Final Occupation by Irrep:
	         A1    A2    B1    B2 
	DOCC [     3,    0,    1,    1 ]

  Energy converged.

  @RHF Final Energy:   -76.02132544789546

   => Energetics <=

    Nuclear Repulsion Energy =          9.7858858389365704
    One-Electron Energy =            -124.1767482761231349
    Two-Electron Energy =              38.3695369892911060
    DFT Functional Energy =             0.0000000000000000
    Empirical Dispersion Energy =       0.0000000000000000
    Total Energy =                    -76.0213254478954639

  ==> Properties <==

  Nuclear Dipole Moment: (a.u.)
     X:     0.0000      Y:     0.0000      Z:     0.9428

  Electronic Dipole Moment: (a.u.)
     X:     0.0000      Y:     0.0000      Z:    -0.1422

  Dipole Moment: (a.u.)
     X:     0.0000      Y:     0.0000      Z:     0.8006     Total:     0.8006

  Dipole Moment: (Debye)
     X:     0.0000      Y:     0.0000      Z:     2.0350     Total:     2.0350


  Saving occupied orbitals to File 180.

*** tstop() called on lawn-143-215-103-161.lawn.gatech.edu at Fri Apr 27 13:51:54 2012
Module time:
	user time   =       0.08 seconds =       0.00 minutes
	system time =       0.01 seconds =       0.00 minutes
	total time  =          0 seconds =       0.00 minutes
Total time:
	user time   =       0.55 seconds =       0.01 minutes
	system time =       0.06 seconds =       0.00 minutes
	total time  =          0 seconds =       0.00 minutes
Setting geometry variable R to 0.900000
Setting geometry variable RCosA to -0.217730
Setting geometry variable RSinA to 0.873266

*** tstart() called on lawn-143-215-103-161.lawn.gatech.edu
*** at Fri Apr 27 13:51:54 2012

	There are an even number of electrons - assuming singlet.
	Specify the multiplicity with the MULTP option in the
	input if this is incorrect


         ---------------------------------------------------------
                                   SCF
            by Justin Turney, Rob Parrish, and Andy Simmonett
                              RHF Reference
                        1 Threads,    250 MiB Core
         ---------------------------------------------------------

  ==> Geometry <==

    Molecular point group: c2v

    Geometry (in Angstrom), charge = 0, multiplicity = 1:

       Center              X                  Y                   Z       
    ------------   -----------------  -----------------  -----------------
           O          0.000000000000     0.000000000000    -0.062011508391
           H         -0.000000000000     0.709209678246     0.492083819402
           H          0.000000000000    -0.709209678246     0.492083819402

  Running in c2v symmetry.

  Nuclear repulsion =    9.780670106434428

  Charge       = 0
  Multiplicity = 1
  Electrons    = 10
  Nalpha       = 5
  Nbeta        = 5

  ==> Algorithm <==

  SCF Algorithm Type is PK.
  DIIS enabled.
  MOM disabled.
  Fractional occupation disabled.
  Guess Type is CORE.
  Energy threshold   = 1.00e-11
  Density threshold  = 1.00e-08
  Integral threshold = 0.00e+00

  ==> Primary Basis <==

  Basis Set: cc-pvdz
    Number of shells: 12
    Number of basis function: 24
    Number of Cartesian functions: 25
    Spherical Harmonics?: true
    Max angular momentum: 2

  ==> Pre-Iterations <==

  Minimum eigenvalue in the overlap matrix is 3.0308209013E-02.
  Using Symmetric Orthogonalization.
  SCF Guess: Core (One-Electron) Hamiltonian.

  Initial RHF energy:   -58.37199246272337

   -------------------------------------------------------
    Irrep   Nso     Nmo     Nalpha   Nbeta   Ndocc  Nsocc
   -------------------------------------------------------
     A1        11      11       3       3       3       0
     A2         2       2       0       0       0       0
     B1         4       4       1       1       1       0
     B2         7       7       1       1       1       0
   -------------------------------------------------------
    Total      24      24       5       5       5       0
   -------------------------------------------------------

  ==> Integral Setup <==

 MINTS: Wrapper to libmints.
   by Justin Turney

   Calculation information:
      Number of atoms:                   3
      Number of AO shells:              12
      Number of SO shells:               9
      Number of primitives:             32
      Number of atomic orbitals:        25
      Number of basis functions:        24

      Number of irreps:                  4
      Number of functions per irrep: [  11    2    4    7 ]

      Overlap, kinetic, potential, dipole, and quadrupole integrals
        stored in file 35.

      Computing two-electron integrals...done
      Computed 11412 non-zero two-electron integrals.
        Stored in file 33.

  ==> Iterations <==

                        Total Energy        Delta E     Density RMS

   @RHF iter   1:   -68.78141553555835   -1.04094e+01   0.00000e+00 
	Occupation by irrep:
	         A1    A2    B1    B2 
	DOCC [     3,    0,    0,    2 ]

   @RHF iter   2:   -70.01688263578113   -1.23547e+00   5.97632e-01 DIIS
	Occupation by irrep:
	         A1    A2    B1    B2 
	DOCC [     3,    0,    1,    1 ]

   @RHF iter   3:   -75.67969251536523   -5.66281e+00   5.65813e-01 DIIS
   @RHF iter   4:   -75.99208923697364   -3.12397e-01   1.96362e-02 DIIS
   @RHF iter   5:   -76.02145414043243   -2.93649e-02   9.12410e-03 DIIS
   @RHF iter   6:   -76.02167797879851   -2.23838e-04   1.22242e-03 DIIS
   @RHF iter   7:   -76.02170850267196   -3.05239e-05   4.16770e-04 DIIS
   @RHF iter   8:   -76.02170966471873   -1.16205e-06   8.75884e-05 DIIS
   @RHF iter   9:   -76.02170973276107   -6.80423e-08   1.57852e-05 DIIS
   @RHF iter  10:   -76.02170973314675   -3.85683e-10   1.72065e-06 DIIS
   @RHF iter  11:   -76.02170973316831   -2.15579e-11   2.86013e-07 DIIS
   @RHF iter  12:   -76.02170973316879   -4.83169e-13   4.07394e-08 DIIS

  ==> Post-Iterations <==

	Orbital Energies (a.u.)
	-----------------------

	Doubly Occupied:                                                      

	   1A1   -20.540311     2A1    -1.368599     1B2    -0.730278  
	   3A1    -0.578351     1B1    -0.498029  

	Virtual:                                                              

	   4A1     0.194413     2B2     0.263875     3B2     0.831607  
	   5A1     0.914881     6A1     1.159565     2B1     1.197741  
	   4B2     1.251838     7A1     1.433606     1A2     1.494790  
	   3B1     1.686267     8A1     1.856647     5B2     2.005229  
	   6B2     2.592530     9A1     2.645351     4B1     3.340977  
	   2A2     3.395191    10A1     3.588460    11A1     3.929927  
	   7B2     4.217613  

	Final Occupation by Irrep:
	         A1    A2    B1    B2 
	DOCC [     3,    0,    1,    1 ]

  Energy converged.

  @RHF Final Energy:   -76.02170973316879

   => Energetics <=

    Nuclear Repulsion Energy =          9.7806701064344281
    One-Electron Energy =            -124.1736229693665905
    Two-Electron Energy =              38.3712431297633643
    DFT Functional Energy =             0.0000000000000000
    Empirical Dispersion Energy =       0.0000000000000000
    Total Energy =                    -76.0217097331687910

  ==> Properties <==

  Nuclear Dipole Moment: (a.u.)
     X:     0.0000      Y:     0.0000      Z:     0.9223

  Electronic Dipole Moment: (a.u.)
     X:     0.0000      Y:     0.0000      Z:    -0.1331

  Dipole Moment: (a.u.)
     X:     0.0000      Y:     0.0000      Z:     0.7892     Total:     0.7892

  Dipole Moment: (Debye)
     X:     0.0000      Y:     0.0000      Z:     2.0059     Total:     2.0059


  Saving occupied orbitals to File 180.

*** tstop() called on lawn-143-215-103-161.lawn.gatech.edu at Fri Apr 27 13:51:54 2012
Module time:
	user time   =       0.07 seconds =       0.00 minutes
	system time =       0.01 seconds =       0.00 minutes
	total time  =          0 seconds =       0.00 minutes
Total time:
	user time   =       0.62 seconds =       0.01 minutes
	system time =       0.07 seconds =       0.00 minutes
	total time  =          0 seconds =       0.00 minutes
Setting geometry variable R to 1.000000
Setting geometry variable RCosA to -0.207912
Setting geometry variable RSinA to 0.978148

*** tstart() called on lawn-143-215-103-161.lawn.gatech.edu
*** at Fri Apr 27 13:51:54 2012

	There are an even number of electrons - assuming singlet.
	Specify the multiplicity with the MULTP option in the
	input if this is incorrect


         ---------------------------------------------------------
                                   SCF
            by Justin Turney, Rob Parrish, and Andy Simmonett
                              RHF Reference
                        1 Threads,    250 MiB Core
         ---------------------------------------------------------

  ==> Geometry <==

    Molecular point group: c2v

    Geometry (in Angstrom), charge = 0, multiplicity = 1:

       Center              X                  Y                   Z       
    ------------   -----------------  -----------------  -----------------
           O          0.000000000000     0.000000000000    -0.070430311812
           H         -0.000000000000     0.777145961457     0.558890079238
           H          0.000000000000    -0.777145961457     0.558890079238

  Running in c2v symmetry.

  Nuclear repulsion =    8.807297255042915

  Charge       = 0
  Multiplicity = 1
  Electrons    = 10
  Nalpha       = 5
  Nbeta        = 5

  ==> Algorithm <==

  SCF Algorithm Type is PK.
  DIIS enabled.
  MOM disabled.
  Fractional occupation disabled.
  Guess Type is CORE.
  Energy threshold   = 1.00e-11
  Density threshold  = 1.00e-08
  Integral threshold = 0.00e+00

  ==> Primary Basis <==

  Basis Set: cc-pvdz
    Number of shells: 12
    Number of basis function: 24
    Number of Cartesian functions: 25
    Spherical Harmonics?: true
    Max angular momentum: 2

  ==> Pre-Iterations <==

  Minimum eigenvalue in the overlap matrix is 3.6941792286E-02.
  Using Symmetric Orthogonalization.
  SCF Guess: Core (One-Electron) Hamiltonian.

  Initial RHF energy:   -58.68439505769975

   -------------------------------------------------------
    Irrep   Nso     Nmo     Nalpha   Nbeta   Ndocc  Nsocc
   -------------------------------------------------------
     A1        11      11       3       3       3       0
     A2         2       2       0       0       0       0
     B1         4       4       1       1       1       0
     B2         7       7       1       1       1       0
   -------------------------------------------------------
    Total      24      24       5       5       5       0
   -------------------------------------------------------

  ==> Integral Setup <==

 MINTS: Wrapper to libmints.
   by Justin Turney

   Calculation information:
      Number of atoms:                   3
      Number of AO shells:              12
      Number of SO shells:               9
      Number of primitives:             32
      Number of atomic orbitals:        25
      Number of basis functions:        24

      Number of irreps:                  4
      Number of functions per irrep: [  11    2    4    7 ]

      Overlap, kinetic, potential, dipole, and quadrupole integrals
        stored in file 35.

      Computing two-electron integrals...done
      Computed 11412 non-zero two-electron integrals.
        Stored in file 33.

  ==> Iterations <==

                        Total Energy        Delta E     Density RMS

   @RHF iter   1:   -68.91755307295871   -1.02332e+01   0.00000e+00 
	Occupation by irrep:
	         A1    A2    B1    B2 
	DOCC [     3,    0,    0,    2 ]

   @RHF iter   2:   -69.83025857584140   -9.12706e-01   5.35336e-01 DIIS
	Occupation by irrep:
	         A1    A2    B1    B2 
	DOCC [     3,    0,    1,    1 ]

   @RHF iter   3:   -75.76448581810403   -5.93423e+00   5.02523e-01 DIIS
   @RHF iter   4:   -75.99915525781141   -2.34669e-01   1.67864e-02 DIIS
   @RHF iter   5:   -76.02115693861664   -2.20017e-02   7.86846e-03 DIIS
   @RHF iter   6:   -76.02143016820668   -2.73230e-04   1.40558e-03 DIIS
   @RHF iter   7:   -76.02147998701423   -4.98188e-05   4.91727e-04 DIIS
   @RHF iter   8:   -76.02148186108850   -1.87407e-06   1.10691e-04 DIIS
   @RHF iter   9:   -76.02148196733901   -1.06251e-07   1.77739e-05 DIIS
   @RHF iter  10:   -76.02148196829098   -9.51971e-10   2.69692e-06 DIIS
   @RHF iter  11:   -76.02148196836237   -7.13811e-11   5.67010e-07 DIIS
   @RHF iter  12:   -76.02148196836458   -2.21689e-12   8.50195e-08 DIIS
   @RHF iter  13:   -76.02148196836461   -2.84217e-14   1.58685e-08 DIIS

  ==> Post-Iterations <==

	Orbital Energies (a.u.)
	-----------------------

	Doubly Occupied:                                                      

	   1A1   -20.559297     2A1    -1.318055     1B2    -0.672659  
	   3A1    -0.563762     1B1    -0.491356  

	Virtual:                                                              

	   4A1     0.177648     2B2     0.249584     3B2     0.752466  
	   5A1     0.826526     6A1     1.168108     2B1     1.197816  
	   4B2     1.259344     7A1     1.429053     1A2     1.473972  
	   3B1     1.654946     8A1     1.871992     5B2     1.903361  
	   6B2     2.350086     9A1     2.392036     4B1     3.260287  
	   2A2     3.289015    10A1     3.461392    11A1     3.806529  
	   7B2     4.111258  

	Final Occupation by Irrep:
	         A1    A2    B1    B2 
	DOCC [     3,    0,    1,    1 ]

  Energy converged.

  @RHF Final Energy:   -76.02148196836461

   => Energetics <=

    Nuclear Repulsion Energy =          8.8072972550429149
    One-Electron Energy =            -122.4473018689192543
    Two-Electron Energy =              37.6185226455117245
    DFT Functional Energy =             0.0000000000000000
    Empirical Dispersion Energy =       0.0000000000000000
    Total Energy =                    -76.0214819683646112

  ==> Properties <==

  Nuclear Dipole Moment: (a.u.)
     X:     0.0000      Y:     0.0000      Z:     1.0475

  Electronic Dipole Moment: (a.u.)
     X:     0.0000      Y:     0.0000      Z:    -0.2080

  Dipole Moment: (a.u.)
     X:     0.0000      Y:     0.0000      Z:     0.8395     Total:     0.8395

  Dipole Moment: (Debye)
     X:     0.0000      Y:     0.0000      Z:     2.1338     Total:     2.1338


  Saving occupied orbitals to File 180.

*** tstop() called on lawn-143-215-103-161.lawn.gatech.edu at Fri Apr 27 13:51:55 2012
Module time:
	user time   =       0.08 seconds =       0.00 minutes
	system time =       0.01 seconds =       0.00 minutes
	total time  =          1 seconds =       0.02 minutes
Total time:
	user time   =       0.70 seconds =       0.01 minutes
	system time =       0.08 seconds =       0.00 minutes
	total time  =          1 seconds =       0.02 minutes
Setting geometry variable R to 1.000000
Setting geometry variable RCosA to -0.241922
Setting geometry variable RSinA to 0.970296

*** tstart() called on lawn-143-215-103-161.lawn.gatech.edu
*** at Fri Apr 27 13:51:55 2012

	There are an even number of electrons - assuming singlet.
	Specify the multiplicity with the MULTP option in the
	input if this is incorrect


         ---------------------------------------------------------
                                   SCF
            by Justin Turney, Rob Parrish, and Andy Simmonett
                              RHF Reference
                        1 Threads,    250 MiB Core
         ---------------------------------------------------------

  ==> Geometry <==

    Molecular point group: c2v

    Geometry (in Angstrom), charge = 0, multiplicity = 1:

       Center              X                  Y                   Z       
    ------------   -----------------  -----------------  -----------------
           O          0.000000000000     0.000000000000    -0.068901675990
           H         -0.000000000000     0.788010753607     0.546759799336
           H          0.000000000000    -0.788010753607     0.546759799336

  Running in c2v symmetry.

  Nuclear repulsion =    8.802603095790985

  Charge       = 0
  Multiplicity = 1
  Electrons    = 10
  Nalpha       = 5
  Nbeta        = 5

  ==> Algorithm <==

  SCF Algorithm Type is PK.
  DIIS enabled.
  MOM disabled.
  Fractional occupation disabled.
  Guess Type is CORE.
  Energy threshold   = 1.00e-11
  Density threshold  = 1.00e-08
  Integral threshold = 0.00e+00

  ==> Primary Basis <==

  Basis Set: cc-pvdz
    Number of shells: 12
    Number of basis function: 24
    Number of Cartesian functions: 25
    Spherical Harmonics?: true
    Max angular momentum: 2

  ==> Pre-Iterations <==

  Minimum eigenvalue in the overlap matrix is 3.7289488642E-02.
  Using Symmetric Orthogonalization.
  SCF Guess: Core (One-Electron) Hamiltonian.

  Initial RHF energy:   -58.68823000525619

   -------------------------------------------------------
    Irrep   Nso     Nmo     Nalpha   Nbeta   Ndocc  Nsocc
   -------------------------------------------------------
     A1        11      11       3       3       3       0
     A2         2       2       0       0       0       0
     B1         4       4       1       1       1       0
     B2         7       7       1       1       1       0
   -------------------------------------------------------
    Total      24      24       5       5       5       0
   -------------------------------------------------------

  ==> Integral Setup <==

 MINTS: Wrapper to libmints.
   by Justin Turney

   Calculation information:
      Number of atoms:                   3
      Number of AO shells:              12
      Number of SO shells:               9
      Number of primitives:             32
      Number of atomic orbitals:        25
      Number of basis functions:        24

      Number of irreps:                  4
      Number of functions per irrep: [  11    2    4    7 ]

      Overlap, kinetic, potential, dipole, and quadrupole integrals
        stored in file 35.

      Computing two-electron integrals...done
      Computed 11412 non-zero two-electron integrals.
        Stored in file 33.

  ==> Iterations <==

                        Total Energy        Delta E     Density RMS

   @RHF iter   1:   -68.92227214648973   -1.02340e+01   0.00000e+00 
	Occupation by irrep:
	         A1    A2    B1    B2 
	DOCC [     3,    0,    0,    2 ]

   @RHF iter   2:   -69.86892756379997   -9.46655e-01   5.30789e-01 DIIS
	Occupation by irrep:
	         A1    A2    B1    B2 
	DOCC [     3,    0,    1,    1 ]

   @RHF iter   3:   -75.76496814376470   -5.89604e+00   4.97703e-01 DIIS
   @RHF iter   4:   -75.99912911161167   -2.34161e-01   1.67254e-02 DIIS
   @RHF iter   5:   -76.02113728786998   -2.20082e-02   7.83068e-03 DIIS
   @RHF iter   6:   -76.02140668361976   -2.69396e-04   1.37860e-03 DIIS
   @RHF iter   7:   -76.02145596794247   -4.92843e-05   4.89662e-04 DIIS
   @RHF iter   8:   -76.02145785590774   -1.88797e-06   1.11416e-04 DIIS
   @RHF iter   9:   -76.02145796141360   -1.05506e-07   1.79910e-05 DIIS
   @RHF iter  10:   -76.02145796249111   -1.07751e-09   2.88925e-06 DIIS
   @RHF iter  11:   -76.02145796257059   -7.94813e-11   6.08247e-07 DIIS
   @RHF iter  12:   -76.02145796257297   -2.37321e-12   8.38581e-08 DIIS
   @RHF iter  13:   -76.02145796257300   -2.84217e-14   1.55823e-08 DIIS

  ==> Post-Iterations <==

	Orbital Energies (a.u.)
	-----------------------

	Doubly Occupied:                                                      

	   1A1   -20.558142     2A1    -1.316554     1B2    -0.676204  
	   3A1    -0.559731     1B1    -0.490580  

	Virtual:                                                              

	   4A1     0.177946     2B2     0.249509     3B2     0.758670  
	   5A1     0.818232     6A1     1.166509     2B1     1.198450  
	   4B2     1.257045     7A1     1.447949     1A2     1.467616  
	   3B1     1.665402     8A1     1.876097     5B2     1.892497  
	   6B2     2.353807     9A1     2.388994     4B1     3.251119  
	   2A2     3.296062    10A1     3.455901    11A1     3.817993  
	   7B2     4.101599  

	Final Occupation by Irrep:
	         A1    A2    B1    B2 
	DOCC [     3,    0,    1,    1 ]

  Energy converged.

  @RHF Final Energy:   -76.02145796257300

   => Energetics <=

    Nuclear Repulsion Energy =          8.8026030957909853
    One-Electron Energy =            -122.4456998510845267
    Two-Electron Energy =              37.6216387927205460
    DFT Functional Energy =             0.0000000000000000
    Empirical Dispersion Energy =       0.0000000000000000
    Total Energy =                    -76.0214579625729954

  ==> Properties <==

  Nuclear Dipole Moment: (a.u.)
     X:     0.0000      Y:     0.0000      Z:     1.0248

  Electronic Dipole Moment: (a.u.)
     X:     0.0000      Y:     0.0000      Z:    -0.1973

  Dipole Moment: (a.u.)
     X:     0.0000      Y:     0.0000      Z:     0.8275     Total:     0.8275

  Dipole Moment: (Debye)
     X:     0.0000      Y:     0.0000      Z:     2.1032     Total:     2.1032


  Saving occupied orbitals to File 180.

*** tstop() called on lawn-143-215-103-161.lawn.gatech.edu at Fri Apr 27 13:51:55 2012
Module time:
	user time   =       0.08 seconds =       0.00 minutes
	system time =       0.01 seconds =       0.00 minutes
	total time  =          0 seconds =       0.00 minutes
Total time:
	user time   =       0.78 seconds =       0.01 minutes
	system time =       0.09 seconds =       0.00 minutes
	total time  =          1 seconds =       0.02 minutes
Setting geometry variable R to 1.100000
Setting geometry variable RCosA to -0.228703
Setting geometry variable RSinA to 1.075962

*** tstart() called on lawn-143-215-103-161.lawn.gatech.edu
*** at Fri Apr 27 13:51:55 2012

	There are an even number of electrons - assuming singlet.
	Specify the multiplicity with the MULTP option in the
	input if this is incorrect


         ---------------------------------------------------------
                                   SCF
            by Justin Turney, Rob Parrish, and Andy Simmonett
                              RHF Reference
                        1 Threads,    250 MiB Core
         ---------------------------------------------------------

  ==> Geometry <==

    Molecular point group: c2v

    Geometry (in Angstrom), charge = 0, multiplicity = 1:

       Center              X                  Y                   Z       
    ------------   -----------------  -----------------  -----------------
           O         -0.000000000000     0.000000000000    -0.077473342993
           H         -0.000000000000     0.854860557603     0.614779087162
           H          0.000000000000    -0.854860557603     0.614779087162

  Running in c2v symmetry.

  Nuclear repulsion =    8.006633868220828

  Charge       = 0
  Multiplicity = 1
  Electrons    = 10
  Nalpha       = 5
  Nbeta        = 5

  ==> Algorithm <==

  SCF Algorithm Type is PK.
  DIIS enabled.
  MOM disabled.
  Fractional occupation disabled.
  Guess Type is CORE.
  Energy threshold   = 1.00e-11
  Density threshold  = 1.00e-08
  Integral threshold = 0.00e+00

  ==> Primary Basis <==

  Basis Set: cc-pvdz
    Number of shells: 12
    Number of basis function: 24
    Number of Cartesian functions: 25
    Spherical Harmonics?: true
    Max angular momentum: 2

  ==> Pre-Iterations <==

  Minimum eigenvalue in the overlap matrix is 4.5556871380E-02.
  Using Symmetric Orthogonalization.
  SCF Guess: Core (One-Electron) Hamiltonian.

  Initial RHF energy:   -58.95474480855725

   -------------------------------------------------------
    Irrep   Nso     Nmo     Nalpha   Nbeta   Ndocc  Nsocc
   -------------------------------------------------------
     A1        11      11       3       3       3       0
     A2         2       2       0       0       0       0
     B1         4       4       1       1       1       0
     B2         7       7       1       1       1       0
   -------------------------------------------------------
    Total      24      24       5       5       5       0
   -------------------------------------------------------

  ==> Integral Setup <==

 MINTS: Wrapper to libmints.
   by Justin Turney

   Calculation information:
      Number of atoms:                   3
      Number of AO shells:              12
      Number of SO shells:               9
      Number of primitives:             32
      Number of atomic orbitals:        25
      Number of basis functions:        24

      Number of irreps:                  4
      Number of functions per irrep: [  11    2    4    7 ]

      Overlap, kinetic, potential, dipole, and quadrupole integrals
        stored in file 35.

      Computing two-electron integrals...done
      Computed 11412 non-zero two-electron integrals.
        Stored in file 33.

  ==> Iterations <==

                        Total Energy        Delta E     Density RMS

   @RHF iter   1:   -68.97620369011103   -1.00215e+01   0.00000e+00 
	Occupation by irrep:
	         A1    A2    B1    B2 
	DOCC [     3,    0,    0,    2 ]

   @RHF iter   2:   -69.60114813385454   -6.24944e-01   4.85523e-01 DIIS
	Occupation by irrep:
	         A1    A2    B1    B2 
	DOCC [     3,    0,    1,    1 ]

   @RHF iter   3:   -75.79127292794543   -6.19012e+00   4.50608e-01 DIIS
   @RHF iter   4:   -75.97246445305660   -1.81192e-01   1.48460e-02 DIIS
   @RHF iter   5:   -75.98967207289773   -1.72076e-02   7.02443e-03 DIIS
   @RHF iter   6:   -75.99002378022730   -3.51707e-04   1.56015e-03 DIIS
   @RHF iter   7:   -75.99010149398710   -7.77138e-05   5.62221e-04 DIIS
   @RHF iter   8:   -75.99010386094453   -2.36696e-06   1.24519e-04 DIIS
   @RHF iter   9:   -75.99010402042231   -1.59478e-07   1.98559e-05 DIIS
   @RHF iter  10:   -75.99010402273143   -2.30912e-09   4.22280e-06 DIIS
   @RHF iter  11:   -75.99010402296935   -2.37918e-10   1.10944e-06 DIIS
   @RHF iter  12:   -75.99010402297637   -7.02016e-12   1.65212e-07 DIIS
   @RHF iter  13:   -75.99010402297644   -7.10543e-14   2.05639e-08 DIIS

  ==> Post-Iterations <==

	Orbital Energies (a.u.)
	-----------------------

	Doubly Occupied:                                                      

	   1A1   -20.576062     2A1    -1.278884     1B2    -0.627092  
	   3A1    -0.545440     1B1    -0.487446  

	Virtual:                                                              

	   4A1     0.157732     2B2     0.229110     3B2     0.699477  
	   5A1     0.751389     6A1     1.172048     2B1     1.185504  
	   4B2     1.270756     1A2     1.456034     7A1     1.456677  
	   3B1     1.650525     5B2     1.812087     8A1     1.889074  
	   6B2     2.147153     9A1     2.200355     4B1     3.179085  
	   2A2     3.204010    10A1     3.333145    11A1     3.713652  
	   7B2     3.992005  

	Final Occupation by Irrep:
	         A1    A2    B1    B2 
	DOCC [     3,    0,    1,    1 ]

  Energy converged.

  @RHF Final Energy:   -75.99010402297644

   => Energetics <=

    Nuclear Repulsion Energy =          8.0066338682208276
    One-Electron Energy =            -120.9636287035886255
    Two-Electron Energy =              36.9668908123913553
    DFT Functional Energy =             0.0000000000000000
    Empirical Dispersion Energy =       0.0000000000000000
    Total Energy =                    -75.9901040229764391

  ==> Properties <==

  Nuclear Dipole Moment: (a.u.)
     X:    -0.0000      Y:     0.0000      Z:     1.1523

  Electronic Dipole Moment: (a.u.)
     X:     0.0000      Y:     0.0000      Z:    -0.2832

  Dipole Moment: (a.u.)
     X:    -0.0000      Y:     0.0000      Z:     0.8691     Total:     0.8691

  Dipole Moment: (Debye)
     X:    -0.0000      Y:     0.0000      Z:     2.2090     Total:     2.2090


  Saving occupied orbitals to File 180.

*** tstop() called on lawn-143-215-103-161.lawn.gatech.edu at Fri Apr 27 13:51:55 2012
Module time:
	user time   =       0.08 seconds =       0.00 minutes
	system time =       0.01 seconds =       0.00 minutes
	total time  =          0 seconds =       0.00 minutes
Total time:
	user time   =       0.86 seconds =       0.01 minutes
	system time =       0.10 seconds =       0.00 minutes
	total time  =          1 seconds =       0.02 minutes
Setting geometry variable R to 1.100000
Setting geometry variable RCosA to -0.266114
Setting geometry variable RSinA to 1.067325

*** tstart() called on lawn-143-215-103-161.lawn.gatech.edu
*** at Fri Apr 27 13:51:55 2012

	There are an even number of electrons - assuming singlet.
	Specify the multiplicity with the MULTP option in the
	input if this is incorrect


         ---------------------------------------------------------
                                   SCF
            by Justin Turney, Rob Parrish, and Andy Simmonett
                              RHF Reference
                        1 Threads,    250 MiB Core
         ---------------------------------------------------------

  ==> Geometry <==

    Molecular point group: c2v

    Geometry (in Angstrom), charge = 0, multiplicity = 1:

       Center              X                  Y                   Z       
    ------------   -----------------  -----------------  -----------------
           O          0.000000000000     0.000000000000    -0.075791843589
           H         -0.000000000000     0.866811828967     0.601435779270
           H          0.000000000000    -0.866811828967     0.601435779270

  Running in c2v symmetry.

  Nuclear repulsion =    8.002366450719078

  Charge       = 0
  Multiplicity = 1
  Electrons    = 10
  Nalpha       = 5
  Nbeta        = 5

  ==> Algorithm <==

  SCF Algorithm Type is PK.
  DIIS enabled.
  MOM disabled.
  Fractional occupation disabled.
  Guess Type is CORE.
  Energy threshold   = 1.00e-11
  Density threshold  = 1.00e-08
  Integral threshold = 0.00e+00

  ==> Primary Basis <==

  Basis Set: cc-pvdz
    Number of shells: 12
    Number of basis function: 24
    Number of Cartesian functions: 25
    Spherical Harmonics?: true
    Max angular momentum: 2

  ==> Pre-Iterations <==

  Minimum eigenvalue in the overlap matrix is 4.6103807002E-02.
  Using Symmetric Orthogonalization.
  SCF Guess: Core (One-Electron) Hamiltonian.

  Initial RHF energy:   -58.95851518677445

   -------------------------------------------------------
    Irrep   Nso     Nmo     Nalpha   Nbeta   Ndocc  Nsocc
   -------------------------------------------------------
     A1        11      11       3       3       3       0
     A2         2       2       0       0       0       0
     B1         4       4       1       1       1       0
     B2         7       7       1       1       1       0
   -------------------------------------------------------
    Total      24      24       5       5       5       0
   -------------------------------------------------------

  ==> Integral Setup <==

 MINTS: Wrapper to libmints.
   by Justin Turney

   Calculation information:
      Number of atoms:                   3
      Number of AO shells:              12
      Number of SO shells:               9
      Number of primitives:             32
      Number of atomic orbitals:        25
      Number of basis functions:        24

      Number of irreps:                  4
      Number of functions per irrep: [  11    2    4    7 ]

      Overlap, kinetic, potential, dipole, and quadrupole integrals
        stored in file 35.

      Computing two-electron integrals...done
      Computed 11412 non-zero two-electron integrals.
        Stored in file 33.

  ==> Iterations <==

                        Total Energy        Delta E     Density RMS

   @RHF iter   1:   -68.98003273414301   -1.00215e+01   0.00000e+00 
	Occupation by irrep:
	         A1    A2    B1    B2 
	DOCC [     3,    0,    0,    2 ]

   @RHF iter   2:   -69.64725442845807   -6.67222e-01   4.81743e-01 DIIS
	Occupation by irrep:
	         A1    A2    B1    B2 
	DOCC [     3,    0,    1,    1 ]

   @RHF iter   3:   -75.79192914624532   -6.14467e+00   4.46512e-01 DIIS
   @RHF iter   4:   -75.97218922804191   -1.80260e-01   1.47618e-02 DIIS
   @RHF iter   5:   -75.98936905846089   -1.71798e-02   6.99075e-03 DIIS
   @RHF iter   6:   -75.98971633493082   -3.47276e-04   1.53750e-03 DIIS
   @RHF iter   7:   -75.98979323982246   -7.69049e-05   5.61904e-04 DIIS
   @RHF iter   8:   -75.98979562563628   -2.38581e-06   1.25420e-04 DIIS
   @RHF iter   9:   -75.98979578276079   -1.57125e-07   1.98865e-05 DIIS
   @RHF iter  10:   -75.98979578525655   -2.49575e-09   4.41497e-06 DIIS
   @RHF iter  11:   -75.98979578551116   -2.54616e-10   1.15832e-06 DIIS
   @RHF iter  12:   -75.98979578551815   -6.99174e-12   1.58602e-07 DIIS
   @RHF iter  13:   -75.98979578551815    0.00000e+00   2.00338e-08 DIIS

  ==> Post-Iterations <==

	Orbital Energies (a.u.)
	-----------------------

	Doubly Occupied:                                                      

	   1A1   -20.574752     2A1    -1.277566     1B2    -0.629911  
	   3A1    -0.541684     1B1    -0.486545  

	Virtual:                                                              

	   4A1     0.157621     2B2     0.229513     3B2     0.704679  
	   5A1     0.744562     6A1     1.170810     2B1     1.186420  
	   4B2     1.268027     1A2     1.450914     7A1     1.473927  
	   3B1     1.658468     5B2     1.804244     8A1     1.891430  
	   6B2     2.149116     9A1     2.200244     4B1     3.172600  
	   2A2     3.209688    10A1     3.328097    11A1     3.721354  
	   7B2     3.985472  

	Final Occupation by Irrep:
	         A1    A2    B1    B2 
	DOCC [     3,    0,    1,    1 ]

  Energy converged.

  @RHF Final Energy:   -75.98979578551815

   => Energetics <=

    Nuclear Repulsion Energy =          8.0023664507190784
    One-Electron Energy =            -120.9634075191386842
    Two-Electron Energy =              36.9712452829014566
    DFT Functional Energy =             0.0000000000000000
    Empirical Dispersion Energy =       0.0000000000000000
    Total Energy =                    -75.9897957855181403

  ==> Properties <==

  Nuclear Dipole Moment: (a.u.)
     X:    -0.0000      Y:     0.0000      Z:     1.1273

  Electronic Dipole Moment: (a.u.)
     X:     0.0000      Y:     0.0000      Z:    -0.2709

  Dipole Moment: (a.u.)
     X:    -0.0000      Y:     0.0000      Z:     0.8564     Total:     0.8564

  Dipole Moment: (Debye)
     X:    -0.0000      Y:     0.0000      Z:     2.1766     Total:     2.1766


  Saving occupied orbitals to File 180.

*** tstop() called on lawn-143-215-103-161.lawn.gatech.edu at Fri Apr 27 13:51:55 2012
Module time:
	user time   =       0.09 seconds =       0.00 minutes
	system time =       0.01 seconds =       0.00 minutes
	total time  =          0 seconds =       0.00 minutes
Total time:
	user time   =       0.95 seconds =       0.02 minutes
	system time =       0.11 seconds =       0.00 minutes
	total time  =          1 seconds =       0.02 minutes

*** PSI4 exiting successfully. Buy a developer a beer!
