    -----------------------------------------------------------------------
          PSI4: An Open-Source Ab Initio Electronic Structure Package
                              PSI 4.0.0-beta1 Driver

               Git: Rev 8268e5ba0276eef671d5bc4a44cf66fa46407463

    J. M. Turney, A. C. Simmonett, R. M. Parrish, E. G. Hohenstein,
    F. A. Evangelista, J. T. Fermann, B. J. Mintz, L. A. Burns, J. J. Wilke,
    M. L. Abrams, N. J. Russ, M. L. Leininger, C. L. Janssen, E. T. Seidl,
    W. D. Allen, H. F. Schaefer, R. A. King, E. F. Valeev, C. D. Sherrill,
    and T. D. Crawford, WIREs Comput. Mol. Sci., (2011) (doi: 10.1002/wcms.93)

                         Additional Contributions by
    A. E. DePrince, M. Saitow, U. Bozkaya, A. Yu. Sokolov
    -----------------------------------------------------------------------


    Using LocalCommunicator (Number of processes = 1)

    Memory level set to 256.000 MB

  ==> Input File <==

--------------------------------------------------------------------------
#! Sample UHF/6-31G** CH2 computation

memory 250 mb

molecule ch2 {
  0 3
  C 
  H 1 R
  H 1 R 2 A

  R = 1.075
  A = 133.93
}

set basis 6-31G**
set reference uhf
energy ('scf')

--------------------------------------------------------------------------

  Memory set to 250.000 MiB by Python script.

*** tstart() called on lawn-143-215-103-161.lawn.gatech.edu
*** at Fri Apr 27 13:50:52 2012


         ---------------------------------------------------------
                                   SCF
            by Justin Turney, Rob Parrish, and Andy Simmonett
                              UHF Reference
                        1 Threads,    250 MiB Core
         ---------------------------------------------------------

  ==> Geometry <==

    Molecular point group: c2v

    Geometry (in Angstrom), charge = 0, multiplicity = 3:

       Center              X                  Y                   Z       
    ------------   -----------------  -----------------  -----------------
           C          0.000000000000     0.000000000000    -0.060494074031
           H          0.000000000000    -0.989285947482     0.360146287935
           H          0.000000000000     0.989285947482     0.360146287935

  Running in c2v symmetry.

  Nuclear repulsion =    6.174548543272019

  Charge       = 0
  Multiplicity = 3
  Electrons    = 8
  Nalpha       = 5
  Nbeta        = 3

  ==> Algorithm <==

  SCF Algorithm Type is PK.
  DIIS enabled.
  MOM disabled.
  Fractional occupation disabled.
  Guess Type is CORE.
  Energy threshold   = 1.00e-08
  Density threshold  = 1.00e-08
  Integral threshold = 0.00e+00

  ==> Primary Basis <==

  Basis Set: 6-31G**
    Number of shells: 12
    Number of basis function: 25
    Number of Cartesian functions: 25
    Spherical Harmonics?: false
    Max angular momentum: 2

  ==> Pre-Iterations <==

  Minimum eigenvalue in the overlap matrix is 3.5780211490E-02.
  Using Symmetric Orthogonalization.
  SCF Guess: Core (One-Electron) Hamiltonian.

  Initial UHF energy:   -28.58173833390533

   -------------------------------------------------------
    Irrep   Nso     Nmo     Nalpha   Nbeta   Ndocc  Nsocc
   -------------------------------------------------------
     A1        12      12       3       2       2       1
     A2         2       2       0       0       0       0
     B1         4       4       1       0       0       1
     B2         7       7       1       1       1       0
   -------------------------------------------------------
    Total      25      25       5       3       3       2
   -------------------------------------------------------

  ==> Integral Setup <==

 MINTS: Wrapper to libmints.
   by Justin Turney

   Calculation information:
      Number of atoms:                   3
      Number of AO shells:              12
      Number of SO shells:               9
      Number of primitives:             25
      Number of atomic orbitals:        25
      Number of basis functions:        25

      Number of irreps:                  4
      Number of functions per irrep: [  12    2    4    7 ]

      Overlap, kinetic, potential, dipole, and quadrupole integrals
        stored in file 35.

      Computing two-electron integrals...done
      Computed 13617 non-zero two-electron integrals.
        Stored in file 33.

  ==> Iterations <==

                        Total Energy        Delta E     Density RMS

   @UHF iter   1:   -34.62033165398589   -6.03859e+00   0.00000e+00 
   @UHF iter   2:   -38.25169584042848   -3.63136e+00   3.13921e-01 DIIS
   @UHF iter   3:   -38.91282241644112   -6.61127e-01   1.04902e-01 DIIS
   @UHF iter   4:   -38.92406695234341   -1.12445e-02   1.14436e-02 DIIS
   @UHF iter   5:   -38.92514827803257   -1.08133e-03   3.90248e-03 DIIS
   @UHF iter   6:   -38.92531839919732   -1.70121e-04   1.38483e-03 DIIS
   @UHF iter   7:   -38.92534000718872   -2.16080e-05   3.83756e-04 DIIS
   @UHF iter   8:   -38.92534154881778   -1.54163e-06   2.23625e-05 DIIS
   @UHF iter   9:   -38.92534160400568   -5.51879e-08   1.21674e-05 DIIS
   @UHF iter  10:   -38.92534160812874   -4.12306e-09   3.14947e-06 DIIS
   @UHF iter  11:   -38.92534160831897   -1.90227e-10   5.50665e-07 DIIS
   @UHF iter  12:   -38.92534160832632   -7.35412e-12   1.26306e-07 DIIS
   @UHF iter  13:   -38.92534160832670   -3.83693e-13   2.74740e-08 DIIS

  ==> Post-Iterations <==

   @Spin Contamination Metric:   1.582799619E-02
   @S^2 Expected:                2.000000000E+00
   @S^2 Observed:                2.015827996E+00
   @S   Expected:                1.000000000E+00
   @S   Observed:                1.000000000E+00

	Orbital Energies (a.u.)
	-----------------------

	Alpha Occupied:                                                       

	   1A1   -11.259489     2A1    -0.946327     1B2    -0.614188  
	   3A1    -0.446644     1B1    -0.406552  

	Alpha Virtual:                                                        

	   4A1     0.254306     2B2     0.327981     5A1     0.719418  
	   2B1     0.729993     3B2     0.777044     6A1     0.791698  
	   7A1     1.133834     4B2     1.181305     1A2     1.660733  
	   8A1     1.827190     3B1     1.849839     5B2     2.089625  
	   9A1     2.263571     4B1     2.611342     6B2     2.754095  
	  10A1     2.880485     2A2     2.944177     7B2     3.698111  
	  11A1     3.801054    12A1     4.618759  

	Beta Occupied:                                                        

	   1A1   -11.212010     2A1    -0.771725     1B2    -0.581849  

	Beta Virtual:                                                         

	   3A1     0.149222     1B1     0.175364     4A1     0.288415  
	   2B2     0.361731     5A1     0.805451     3B2     0.810960  
	   2B1     0.898233     6A1     0.909171     7A1     1.179656  
	   4B2     1.222693     1A2     1.745930     8A1     1.973831  
	   3B1     2.016860     5B2     2.120067     9A1     2.340493  
	   4B1     2.639574     6B2     2.791227    10A1     2.899763  
	   2A2     2.986685     7B2     3.716430    11A1     3.829224  
	  12A1     4.686632  

	Final Occupation by Irrep:
	         A1    A2    B1    B2 
	DOCC [     2,    0,    0,    1 ]
	SOCC [     1,    0,    1,    0 ]

  Energy converged.

  @UHF Final Energy:   -38.92534160832670

   => Energetics <=

    Nuclear Repulsion Energy =          6.1745485432720191
    One-Electron Energy =             -63.9609977303154267
    Two-Electron Energy =              18.8611075787167017
    DFT Functional Energy =             0.0000000000000000
    Empirical Dispersion Energy =       0.0000000000000000
    Total Energy =                    -38.9253416083267041

  ==> Properties <==

  Nuclear Dipole Moment: (a.u.)
     X:     0.0000      Y:     0.0000      Z:     0.6753

  Electronic Dipole Moment: (a.u.)
     X:     0.0000      Y:     0.0000      Z:    -0.4562

  Dipole Moment: (a.u.)
     X:     0.0000      Y:     0.0000      Z:     0.2190     Total:     0.2190

  Dipole Moment: (Debye)
     X:     0.0000      Y:     0.0000      Z:     0.5568     Total:     0.5568


  Saving occupied orbitals to File 180.

*** tstop() called on lawn-143-215-103-161.lawn.gatech.edu at Fri Apr 27 13:50:52 2012
Module time:
	user time   =       0.08 seconds =       0.00 minutes
	system time =       0.01 seconds =       0.00 minutes
	total time  =          0 seconds =       0.00 minutes
Total time:
	user time   =       0.08 seconds =       0.00 minutes
	system time =       0.01 seconds =       0.00 minutes
	total time  =          0 seconds =       0.00 minutes

*** PSI4 exiting successfully. Buy a developer a beer!
