    -----------------------------------------------------------------------
          PSI4: An Open-Source Ab Initio Electronic Structure Package
                              PSI 4.0.0-beta1 Driver

               Git: Rev 8268e5ba0276eef671d5bc4a44cf66fa46407463

    J. M. Turney, A. C. Simmonett, R. M. Parrish, E. G. Hohenstein,
    F. A. Evangelista, J. T. Fermann, B. J. Mintz, L. A. Burns, J. J. Wilke,
    M. L. Abrams, N. J. Russ, M. L. Leininger, C. L. Janssen, E. T. Seidl,
    W. D. Allen, H. F. Schaefer, R. A. King, E. F. Valeev, C. D. Sherrill,
    and T. D. Crawford, WIREs Comput. Mol. Sci., (2011) (doi: 10.1002/wcms.93)

                         Additional Contributions by
    A. E. DePrince, M. Saitow, U. Bozkaya, A. Yu. Sokolov
    -----------------------------------------------------------------------


    Using LocalCommunicator (Number of processes = 1)

    Memory level set to 256.000 MB

  ==> Input File <==

--------------------------------------------------------------------------
#! Optimize H2O HF/cc-pVDZ

memory 250 mb

nucenergy =   9.3007948234239  #TEST
refenergy = -76.0270535127645  #TEST

molecule h2o {
  O 
  H 1 0.96
  H 1 0.96 2 104.5
}

set basis cc-pVDZ
optimize('scf')

compare_values(nucenergy, h2o.nuclear_repulsion_energy(), 3, "Nuclear repulsion energy")    #TEST
compare_values(refenergy, get_variable("CURRENT ENERGY"), 4, "Reference energy") #TEST
--------------------------------------------------------------------------

  Memory set to 250.000 MiB by Python script.

*** tstart() called on lawn-143-215-103-161.lawn.gatech.edu
*** at Fri Apr 27 13:50:52 2012

	There are an even number of electrons - assuming singlet.
	Specify the multiplicity with the MULTP option in the
	input if this is incorrect


         ---------------------------------------------------------
                                   SCF
            by Justin Turney, Rob Parrish, and Andy Simmonett
                              RHF Reference
                        1 Threads,    250 MiB Core
         ---------------------------------------------------------

  ==> Geometry <==

    Molecular point group: c2v

    Geometry (in Angstrom), charge = 0, multiplicity = 1:

       Center              X                  Y                   Z       
    ------------   -----------------  -----------------  -----------------
           O          0.000000000000     0.000000000000    -0.065775570538
           H          0.000000000000    -0.759061990794     0.521953018295
           H          0.000000000000     0.759061990794     0.521953018295

  Running in c2v symmetry.

  Nuclear repulsion =    9.168193260387572

  Charge       = 0
  Multiplicity = 1
  Electrons    = 10
  Nalpha       = 5
  Nbeta        = 5

  ==> Algorithm <==

  SCF Algorithm Type is PK.
  DIIS enabled.
  MOM disabled.
  Fractional occupation disabled.
  Guess Type is CORE.
  Energy threshold   = 1.00e-08
  Density threshold  = 1.00e-08
  Integral threshold = 0.00e+00

  ==> Primary Basis <==

  Basis Set: CC-PVDZ
    Number of shells: 12
    Number of basis function: 24
    Number of Cartesian functions: 25
    Spherical Harmonics?: true
    Max angular momentum: 2

  ==> Pre-Iterations <==

  Minimum eigenvalue in the overlap matrix is 3.4377086883E-02.
  Using Symmetric Orthogonalization.
  SCF Guess: Core (One-Electron) Hamiltonian.

  Initial RHF energy:   -58.56955700002258

   -------------------------------------------------------
    Irrep   Nso     Nmo     Nalpha   Nbeta   Ndocc  Nsocc
   -------------------------------------------------------
     A1        11      11       3       3       3       0
     A2         2       2       0       0       0       0
     B1         4       4       1       1       1       0
     B2         7       7       1       1       1       0
   -------------------------------------------------------
    Total      24      24       5       5       5       0
   -------------------------------------------------------

  ==> Integral Setup <==

 MINTS: Wrapper to libmints.
   by Justin Turney

   Calculation information:
      Number of atoms:                   3
      Number of AO shells:              12
      Number of SO shells:               9
      Number of primitives:             32
      Number of atomic orbitals:        25
      Number of basis functions:        24

      Number of irreps:                  4
      Number of functions per irrep: [  11    2    4    7 ]

      Overlap, kinetic, potential, dipole, and quadrupole integrals
        stored in file 35.

      Computing two-electron integrals...done
      Computed 11412 non-zero two-electron integrals.
        Stored in file 33.

  ==> Iterations <==

                        Total Energy        Delta E     Density RMS

   @RHF iter   1:   -68.87688078041751   -1.03073e+01   0.00000e+00 
	Occupation by irrep:
	         A1    A2    B1    B2 
	DOCC [     3,    0,    0,    2 ]

   @RHF iter   2:   -69.94690658607742   -1.07003e+00   5.53911e-01 DIIS
	Occupation by irrep:
	         A1    A2    B1    B2 
	DOCC [     3,    0,    1,    1 ]

   @RHF iter   3:   -75.73850380716036   -5.79160e+00   5.21445e-01 DIIS
   @RHF iter   4:   -76.00169075373569   -2.63187e-01   1.77865e-02 DIIS
   @RHF iter   5:   -76.02636706962485   -2.46763e-02   8.29266e-03 DIIS
   @RHF iter   6:   -76.02661123362959   -2.44164e-04   1.30152e-03 DIIS
   @RHF iter   7:   -76.02665195561389   -4.07220e-05   4.60197e-04 DIIS
   @RHF iter   8:   -76.02665357124121   -1.61563e-06   1.02979e-04 DIIS
   @RHF iter   9:   -76.02665366087192   -8.96307e-08   1.73293e-05 DIIS
   @RHF iter  10:   -76.02665366162086   -7.48940e-10   2.41058e-06 DIIS
   @RHF iter  11:   -76.02665366166983   -4.89706e-11   4.62222e-07 DIIS
   @RHF iter  12:   -76.02665366167118   -1.35003e-12   6.40720e-08 DIIS
   @RHF iter  13:   -76.02665366167123   -5.68434e-14   1.34303e-08 DIIS

  ==> Post-Iterations <==

	Orbital Energies (a.u.)
	-----------------------

	Doubly Occupied:                                                      

	   1A1   -20.550919     2A1    -1.335305     1B2    -0.697799  
	   3A1    -0.566090     1B1    -0.492954  

	Virtual:                                                              

	   4A1     0.185103     2B2     0.255849     3B2     0.787301  
	   5A1     0.851798     6A1     1.163709     2B1     1.200352  
	   4B2     1.253479     7A1     1.444918     1A2     1.475588  
	   3B1     1.674083     8A1     1.867861     5B2     1.931955  
	   6B2     2.446380     9A1     2.483524     4B1     3.283305  
	   2A2     3.336169    10A1     3.506961    11A1     3.862825  
	   7B2     4.144454  

	Final Occupation by Irrep:
	         A1    A2    B1    B2 
	DOCC [     3,    0,    1,    1 ]

  Energy converged.

  @RHF Final Energy:   -76.02665366167123

   => Energetics <=

    Nuclear Repulsion Energy =          9.1681932603875715
    One-Electron Energy =            -123.1035618801078613
    Two-Electron Energy =              37.9087149580490674
    DFT Functional Energy =             0.0000000000000000
    Empirical Dispersion Energy =       0.0000000000000000
    Total Energy =                    -76.0266536616712187

  ==> Properties <==

  Nuclear Dipole Moment: (a.u.)
     X:     0.0000      Y:     0.0000      Z:     0.9783

  Electronic Dipole Moment: (a.u.)
     X:     0.0000      Y:     0.0000      Z:    -0.1682

  Dipole Moment: (a.u.)
     X:     0.0000      Y:     0.0000      Z:     0.8101     Total:     0.8101

  Dipole Moment: (Debye)
     X:     0.0000      Y:     0.0000      Z:     2.0592     Total:     2.0592


  Saving occupied orbitals to File 180.

*** tstop() called on lawn-143-215-103-161.lawn.gatech.edu at Fri Apr 27 13:50:52 2012
Module time:
	user time   =       0.08 seconds =       0.00 minutes
	system time =       0.01 seconds =       0.00 minutes
	total time  =          0 seconds =       0.00 minutes
Total time:
	user time   =       0.08 seconds =       0.00 minutes
	system time =       0.01 seconds =       0.00 minutes
	total time  =          0 seconds =       0.00 minutes

*** tstart() called on lawn-143-215-103-161.lawn.gatech.edu
*** at Fri Apr 27 13:50:52 2012

 DERIV: Derivative code.
   by Justin Turney

  Cartesian Displacement SALCs
  By SALC:
  Number of SALCs: 3, nirreps: 1
  Project out translations: False
  Project out rotations: False
	irrep = 0, ncomponent = 1
		0: atom 0, direction z, coef 1.000000
	irrep = 0, ncomponent = 2
		0: atom 1, direction y, coef 0.707107
		1: atom 2, direction y, coef -0.707107
	irrep = 0, ncomponent = 2
		0: atom 1, direction z, coef 0.707107
		1: atom 2, direction z, coef 0.707107

  By Atomic Center:
  Number of atomic centers: 3
   Atomic Center 0:
	x component, size = 0
	y component, size = 0
	z component, size = 1
		0: salc 0, irrep 0, coef 1.000000
   Atomic Center 1:
	x component, size = 0
	y component, size = 1
		0: salc 1, irrep 0, coef 0.707107
	z component, size = 1
		0: salc 2, irrep 0, coef 0.707107
   Atomic Center 2:
	x component, size = 0
	y component, size = 1
		0: salc 1, irrep 0, coef -0.707107
	z component, size = 1
		0: salc 2, irrep 0, coef 0.707107

    Molecular point group: c2v

    Geometry (in Bohr), charge = 0, multiplicity = 1:

       Center              X                  Y                   Z       
    ------------   -----------------  -----------------  -----------------
           O          0.000000000000     0.000000000000    -0.124297814551
           H          0.000000000000    -1.434419280484     0.986348258811
           H          0.000000000000     1.434419280484     0.986348258811


  -Nuclear Repulsion Energy 1st Derivatives:
     Atom            X                  Y                   Z
    ------   -----------------  -----------------  -----------------
       1        0.000000000000     0.000000000000     2.976359334684
       2        0.000000000000     2.043513891709    -1.488179667342
       3        0.000000000000    -2.043513891709    -1.488179667342


  -One-electron contribution to gradient:
     Atom            X                  Y                   Z
    ------   -----------------  -----------------  -----------------
       1        0.000000000000     0.000000000000    -7.556702984603
       2        0.000000000000    -5.037475348145     3.778351492301
       3        0.000000000000     5.037475348145     3.778351492301


  -Lagrangian contribution to gradient:
     Atom            X                  Y                   Z
    ------   -----------------  -----------------  -----------------
       1        0.000000000000     0.000000000000     0.492923787632
       2        0.000000000000     0.300422224309    -0.246461893816
       3        0.000000000000    -0.300422224309    -0.246461893816


  -Two-electron contribution to gradient:
     Atom            X                  Y                   Z
    ------   -----------------  -----------------  -----------------
       1        0.000000000000     0.000000000000     4.069798288679
       2        0.000000000000     2.681096057556    -2.034899144339
       3        0.000000000000    -2.681096057556    -2.034899144339


  -Total gradient:
     Atom            X                  Y                   Z
    ------   -----------------  -----------------  -----------------
       1        0.000000000000     0.000000000000    -0.017621573608
       2        0.000000000000    -0.012443174572     0.008810786804
       3        0.000000000000     0.012443174572     0.008810786804


*** tstop() called on lawn-143-215-103-161.lawn.gatech.edu at Fri Apr 27 13:50:52 2012
Module time:
	user time   =       0.15 seconds =       0.00 minutes
	system time =       0.02 seconds =       0.00 minutes
	total time  =          0 seconds =       0.00 minutes
Total time:
	user time   =       0.23 seconds =       0.00 minutes
	system time =       0.03 seconds =       0.00 minutes
	total time  =          0 seconds =       0.00 minutes

			----------------------------------
			 OPTKING: for geometry optimizations  
			  - R.A. King,  Bethel University   
			------------------------------------

	Internal coordinates to be generated automatically.
	Detected frag with atoms:  1 2 3
	---Fragment 1 Bond Connectivity---
	 1 : 2 3
	 2 : 1
	 3 : 1

	---Fragment 1 Geometry and Gradient---
	 O           0.0000000000        0.0000000000       -0.1242978146
	 H           0.0000000000       -1.4344192805        0.9863482588
	 H           0.0000000000        1.4344192805        0.9863482588
	             0.0000000000        0.0000000000       -0.0176215736
	             0.0000000000       -0.0124431746        0.0088107868
	             0.0000000000        0.0124431746        0.0088107868

	Previous optimization step data not found.  Starting new optimization.

	---Fragment 1 Intrafragment Coordinates---
	 - Coordinate -           - BOHR/RAD -       - ANG/DEG -
	 R(1,2)           =         1.814137	       0.960000
	 R(1,3)           =         1.814137	       0.960000
	 B(2,1,3)         =         1.823869	     104.500000

	Current energy   :       -76.0266536617

	Generating empirical Hessian (Schlegel '84) for each fragment.
	Going to follow RFO solution 1.
	Projected energy change by RFO approximation:        -0.0004219923

	Back-transformation to cartesian coordinates...
	Successfully converged to displaced geometry.

	---Internal Coordinate Step in ANG or DEG, aJ/ANG or AJ/DEG ---
	 ----------------------------------------------------------------------
	 Coordinate             Previous        Force       Change         New 
	 ----------             --------       ------       ------       ------
	 R(1,2)          =      0.960000    -0.125499    -0.014509     0.945491
	 R(1,3)          =      0.960000    -0.125499    -0.014509     0.945491
	 B(2,1,3)        =    104.500000    -0.000090    -0.420909   104.079091
	 ----------------------------------------------------------------------

  ==> Convergence Check <==

  Measures of convergence in internal coordinates in au.
  Criteria marked as inactive (o), active & met (*), and active & unmet ( ).
  --------------------------------------------------------------------------------------------- ~
   Step     Total Energy     Delta E     MAX Force     RMS Force      MAX Disp      RMS Disp    ~
  --------------------------------------------------------------------------------------------- ~
    Convergence Criteria    1.00e-06 *    3.00e-04 *             o    1.20e-03 *             o  ~
  --------------------------------------------------------------------------------------------- ~
      1     -76.02665366   -7.60e+01      1.52e-02      1.25e-02 o    2.74e-02      2.28e-02 o  ~
  ---------------------------------------------------------------------------------------------

	Writing optimization data to binary file.
	Structure for next step:
	Cartesian Geometry (au)
	    O     0.0000000000   0.0000000000  -0.1165618454
	    H     0.0000000000  -1.4087127936   0.9824802742
	    H     0.0000000000   1.4087127936   0.9824802742
			--------------------------
			 OPTKING Finished Execution 
			--------------------------

*** tstart() called on lawn-143-215-103-161.lawn.gatech.edu
*** at Fri Apr 27 13:50:52 2012

	There are an even number of electrons - assuming singlet.
	Specify the multiplicity with the MULTP option in the
	input if this is incorrect


         ---------------------------------------------------------
                                   SCF
            by Justin Turney, Rob Parrish, and Andy Simmonett
                              RHF Reference
                        1 Threads,    250 MiB Core
         ---------------------------------------------------------

  ==> Geometry <==

    Molecular point group: c2v

    Geometry (in Angstrom), charge = 0, multiplicity = 1:

       Center              X                  Y                   Z       
    ------------   -----------------  -----------------  -----------------
           O          0.000000000000     0.000000000000    -0.065088351901
           H          0.000000000000    -0.745458703848     0.516499689058
           H          0.000000000000     0.745458703848     0.516499689058

  Running in c2v symmetry.

  Nuclear repulsion =    9.309894788833574

  Charge       = 0
  Multiplicity = 1
  Electrons    = 10
  Nalpha       = 5
  Nbeta        = 5

  ==> Algorithm <==

  SCF Algorithm Type is PK.
  DIIS enabled.
  MOM disabled.
  Fractional occupation disabled.
  Guess Type is CORE.
  Energy threshold   = 1.00e-08
  Density threshold  = 1.00e-08
  Integral threshold = 0.00e+00

  ==> Primary Basis <==

  Basis Set: CC-PVDZ
    Number of shells: 12
    Number of basis function: 24
    Number of Cartesian functions: 25
    Spherical Harmonics?: true
    Max angular momentum: 2

  ==> Pre-Iterations <==

  Minimum eigenvalue in the overlap matrix is 3.3300020930E-02.
  Using Symmetric Orthogonalization.
  SCF Guess: Core (One-Electron) Hamiltonian.

  Initial RHF energy:   -58.52332834493662

   -------------------------------------------------------
    Irrep   Nso     Nmo     Nalpha   Nbeta   Ndocc  Nsocc
   -------------------------------------------------------
     A1        11      11       3       3       3       0
     A2         2       2       0       0       0       0
     B1         4       4       1       1       1       0
     B2         7       7       1       1       1       0
   -------------------------------------------------------
    Total      24      24       5       5       5       0
   -------------------------------------------------------

  ==> Integral Setup <==

 MINTS: Wrapper to libmints.
   by Justin Turney

   Calculation information:
      Number of atoms:                   3
      Number of AO shells:              12
      Number of SO shells:               9
      Number of primitives:             32
      Number of atomic orbitals:        25
      Number of basis functions:        24

      Number of irreps:                  4
      Number of functions per irrep: [  11    2    4    7 ]

      Overlap, kinetic, potential, dipole, and quadrupole integrals
        stored in file 35.

      Computing two-electron integrals...done
      Computed 11412 non-zero two-electron integrals.
        Stored in file 33.

  ==> Iterations <==

                        Total Energy        Delta E     Density RMS

   @RHF iter   1:   -68.85561772396882   -1.03323e+01   0.00000e+00 
	Occupation by irrep:
	         A1    A2    B1    B2 
	DOCC [     3,    0,    0,    2 ]

   @RHF iter   2:   -69.96140214294738   -1.10578e+00   5.64477e-01 DIIS
	Occupation by irrep:
	         A1    A2    B1    B2 
	DOCC [     3,    0,    1,    1 ]

   @RHF iter   3:   -75.72636081687442   -5.76496e+00   5.32261e-01 DIIS
   @RHF iter   4:   -76.00102542874123   -2.74665e-01   1.82192e-02 DIIS
   @RHF iter   5:   -76.02676585412335   -2.57404e-02   8.48783e-03 DIIS
   @RHF iter   6:   -76.02700371106927   -2.37857e-04   1.28365e-03 DIIS
   @RHF iter   7:   -76.02704177514273   -3.80641e-05   4.50166e-04 DIIS
   @RHF iter   8:   -76.02704328217190   -1.50703e-06   9.94028e-05 DIIS
   @RHF iter   9:   -76.02704336647093   -8.42990e-08   1.69635e-05 DIIS
   @RHF iter  10:   -76.02704336709755   -6.26613e-10   2.20016e-06 DIIS
   @RHF iter  11:   -76.02704336713705   -3.95062e-11   4.07825e-07 DIIS
   @RHF iter  12:   -76.02704336713823   -1.17950e-12   5.77887e-08 DIIS
   @RHF iter  13:   -76.02704336713821    2.84217e-14   1.26598e-08 DIIS

  ==> Post-Iterations <==

	Orbital Energies (a.u.)
	-----------------------

	Doubly Occupied:                                                      

	   1A1   -20.548575     2A1    -1.343126     1B2    -0.704814  
	   3A1    -0.569653     1B1    -0.494175  

	Virtual:                                                              

	   4A1     0.187423     2B2     0.257998     3B2     0.796389  
	   5A1     0.867635     6A1     1.163028     2B1     1.200258  
	   4B2     1.253107     7A1     1.438866     1A2     1.480871  
	   3B1     1.674604     8A1     1.863932     5B2     1.950720  
	   6B2     2.479736     9A1     2.521322     4B1     3.298521  
	   2A2     3.348915    10A1     3.528112    11A1     3.875387  
	   7B2     4.163568  

	Final Occupation by Irrep:
	         A1    A2    B1    B2 
	DOCC [     3,    0,    1,    1 ]

  Energy converged.

  @RHF Final Energy:   -76.02704336713821

   => Energetics <=

    Nuclear Repulsion Energy =          9.3098947888335744
    One-Electron Energy =            -123.3531915603354037
    Two-Electron Energy =              38.0162534043636313
    DFT Functional Energy =             0.0000000000000000
    Empirical Dispersion Energy =       0.0000000000000000
    Total Energy =                    -76.0270433671381909

  ==> Properties <==

  Nuclear Dipole Moment: (a.u.)
     X:     0.0000      Y:     0.0000      Z:     0.9681

  Electronic Dipole Moment: (a.u.)
     X:     0.0000      Y:     0.0000      Z:    -0.1610

  Dipole Moment: (a.u.)
     X:     0.0000      Y:     0.0000      Z:     0.8071     Total:     0.8071

  Dipole Moment: (Debye)
     X:     0.0000      Y:     0.0000      Z:     2.0515     Total:     2.0515


  Saving occupied orbitals to File 180.

*** tstop() called on lawn-143-215-103-161.lawn.gatech.edu at Fri Apr 27 13:50:52 2012
Module time:
	user time   =       0.08 seconds =       0.00 minutes
	system time =       0.01 seconds =       0.00 minutes
	total time  =          0 seconds =       0.00 minutes
Total time:
	user time   =       0.31 seconds =       0.01 minutes
	system time =       0.04 seconds =       0.00 minutes
	total time  =          0 seconds =       0.00 minutes

*** tstart() called on lawn-143-215-103-161.lawn.gatech.edu
*** at Fri Apr 27 13:50:52 2012

 DERIV: Derivative code.
   by Justin Turney

  Cartesian Displacement SALCs
  By SALC:
  Number of SALCs: 3, nirreps: 1
  Project out translations: False
  Project out rotations: False
	irrep = 0, ncomponent = 1
		0: atom 0, direction z, coef 1.000000
	irrep = 0, ncomponent = 2
		0: atom 1, direction y, coef 0.707107
		1: atom 2, direction y, coef -0.707107
	irrep = 0, ncomponent = 2
		0: atom 1, direction z, coef 0.707107
		1: atom 2, direction z, coef 0.707107

  By Atomic Center:
  Number of atomic centers: 3
   Atomic Center 0:
	x component, size = 0
	y component, size = 0
	z component, size = 1
		0: salc 0, irrep 0, coef 1.000000
   Atomic Center 1:
	x component, size = 0
	y component, size = 1
		0: salc 1, irrep 0, coef 0.707107
	z component, size = 1
		0: salc 2, irrep 0, coef 0.707107
   Atomic Center 2:
	x component, size = 0
	y component, size = 1
		0: salc 1, irrep 0, coef -0.707107
	z component, size = 1
		0: salc 2, irrep 0, coef 0.707107

    Molecular point group: c2v

    Geometry (in Bohr), charge = 0, multiplicity = 1:

       Center              X                  Y                   Z       
    ------------   -----------------  -----------------  -----------------
           O          0.000000000000     0.000000000000    -0.122999159533
           H          0.000000000000    -1.408712793649     0.976042960041
           H          0.000000000000     1.408712793649     0.976042960041


  -Nuclear Repulsion Energy 1st Derivatives:
     Atom            X                  Y                   Z
    ------   -----------------  -----------------  -----------------
       1        0.000000000000     0.000000000000     3.082942635057
       2        0.000000000000     2.101780791434    -1.541471317529
       3        0.000000000000    -2.101780791434    -1.541471317529


  -One-electron contribution to gradient:
     Atom            X                  Y                   Z
    ------   -----------------  -----------------  -----------------
       1        0.000000000000     0.000000000000    -7.745892654616
       2        0.000000000000    -5.113782002000     3.872946327308
       3        0.000000000000     5.113782002000     3.872946327308


  -Lagrangian contribution to gradient:
     Atom            X                  Y                   Z
    ------   -----------------  -----------------  -----------------
       1        0.000000000000     0.000000000000     0.504013824226
       2        0.000000000000     0.304758136830    -0.252006912113
       3        0.000000000000    -0.304758136830    -0.252006912113


  -Two-electron contribution to gradient:
     Atom            X                  Y                   Z
    ------   -----------------  -----------------  -----------------
       1        0.000000000000     0.000000000000     4.158853229331
       2        0.000000000000     2.708817618653    -2.079426614666
       3        0.000000000000    -2.708817618653    -2.079426614666


  -Total gradient:
     Atom            X                  Y                   Z
    ------   -----------------  -----------------  -----------------
       1        0.000000000000     0.000000000000    -0.000082966001
       2        0.000000000000     0.001574544917     0.000041483001
       3        0.000000000000    -0.001574544917     0.000041483001


*** tstop() called on lawn-143-215-103-161.lawn.gatech.edu at Fri Apr 27 13:50:52 2012
Module time:
	user time   =       0.15 seconds =       0.00 minutes
	system time =       0.01 seconds =       0.00 minutes
	total time  =          0 seconds =       0.00 minutes
Total time:
	user time   =       0.46 seconds =       0.01 minutes
	system time =       0.05 seconds =       0.00 minutes
	total time  =          0 seconds =       0.00 minutes

			----------------------------------
			 OPTKING: for geometry optimizations  
			  - R.A. King,  Bethel University   
			------------------------------------

	Previous internal coordinate definitions found.
	---Fragment 1 Geometry and Gradient---
	 O           0.0000000000        0.0000000000       -0.1229991595
	 H           0.0000000000       -1.4087127936        0.9760429600
	 H           0.0000000000        1.4087127936        0.9760429600
	             0.0000000000        0.0000000000       -0.0000829660
	             0.0000000000        0.0015745449        0.0000414830
	             0.0000000000       -0.0015745449        0.0000414830

	---Fragment 1 Intrafragment Coordinates---
	 - Coordinate -           - BOHR/RAD -       - ANG/DEG -
	 R(1,2)           =         1.786719	       0.945491
	 R(1,3)           =         1.786719	       0.945491
	 B(2,1,3)         =         1.816523	     104.079091

	Current energy   :       -76.0270433671

	Energy change for the previous step:
		Projected    :        -0.0004219923
		Actual       :        -0.0003897055
	Energy ratio indicates good step: Trust radius increased to 8.000e-01.


	Performing BFGS update with previous 1 gradient(s).
	Going to follow RFO solution 1.
	Projected energy change by RFO approximation:        -0.0000108600

	Back-transformation to cartesian coordinates...
	Successfully converged to displaced geometry.

	---Internal Coordinate Step in ANG or DEG, aJ/ANG or AJ/DEG ---
	 ----------------------------------------------------------------------
	 Coordinate             Previous        Force       Change         New 
	 ----------             --------       ------       ------       ------
	 R(1,2)          =      0.945491     0.010018     0.000802     0.946293
	 R(1,3)          =      0.945491     0.010018     0.000802     0.946293
	 B(2,1,3)        =    104.079091     0.000136     0.577581   104.656672
	 ----------------------------------------------------------------------

  ==> Convergence Check <==

  Measures of convergence in internal coordinates in au.
  Criteria marked as inactive (o), active & met (*), and active & unmet ( ).
  ---------------------------------------------------------------------------------------------
   Step     Total Energy     Delta E     MAX Force     RMS Force      MAX Disp      RMS Disp   
  ---------------------------------------------------------------------------------------------
    Convergence Criteria    1.00e-06 *    3.00e-04 *             o    1.20e-03 *             o
  ---------------------------------------------------------------------------------------------
      2     -76.02704337   -3.90e-04      1.79e-03      1.43e-03 o    1.01e-02      5.95e-03 o  ~
  ---------------------------------------------------------------------------------------------

	Writing optimization data to binary file.
	Structure for next step:
	Cartesian Geometry (au)
	    O     0.0000000000   0.0000000000  -0.1188738811
	    H     0.0000000000  -1.4154343006   0.9739803208
	    H     0.0000000000   1.4154343006   0.9739803208
			--------------------------
			 OPTKING Finished Execution 
			--------------------------

*** tstart() called on lawn-143-215-103-161.lawn.gatech.edu
*** at Fri Apr 27 13:50:52 2012

	There are an even number of electrons - assuming singlet.
	Specify the multiplicity with the MULTP option in the
	input if this is incorrect


         ---------------------------------------------------------
                                   SCF
            by Justin Turney, Rob Parrish, and Andy Simmonett
                              RHF Reference
                        1 Threads,    250 MiB Core
         ---------------------------------------------------------

  ==> Geometry <==

    Molecular point group: c2v

    Geometry (in Angstrom), charge = 0, multiplicity = 1:

       Center              X                  Y                   Z       
    ------------   -----------------  -----------------  -----------------
           O          0.000000000000     0.000000000000    -0.064721886092
           H          0.000000000000    -0.749015572111     0.513591649902
           H          0.000000000000     0.749015572111     0.513591649902

  Running in c2v symmetry.

  Nuclear repulsion =    9.300618151041089

  Charge       = 0
  Multiplicity = 1
  Electrons    = 10
  Nalpha       = 5
  Nbeta        = 5

  ==> Algorithm <==

  SCF Algorithm Type is PK.
  DIIS enabled.
  MOM disabled.
  Fractional occupation disabled.
  Guess Type is CORE.
  Energy threshold   = 1.00e-08
  Density threshold  = 1.00e-08
  Integral threshold = 0.00e+00

  ==> Primary Basis <==

  Basis Set: CC-PVDZ
    Number of shells: 12
    Number of basis function: 24
    Number of Cartesian functions: 25
    Spherical Harmonics?: true
    Max angular momentum: 2

  ==> Pre-Iterations <==

  Minimum eigenvalue in the overlap matrix is 3.3430797131E-02.
  Using Symmetric Orthogonalization.
  SCF Guess: Core (One-Electron) Hamiltonian.

  Initial RHF energy:   -58.52693211214340

   -------------------------------------------------------
    Irrep   Nso     Nmo     Nalpha   Nbeta   Ndocc  Nsocc
   -------------------------------------------------------
     A1        11      11       3       3       3       0
     A2         2       2       0       0       0       0
     B1         4       4       1       1       1       0
     B2         7       7       1       1       1       0
   -------------------------------------------------------
    Total      24      24       5       5       5       0
   -------------------------------------------------------

  ==> Integral Setup <==

 MINTS: Wrapper to libmints.
   by Justin Turney

   Calculation information:
      Number of atoms:                   3
      Number of AO shells:              12
      Number of SO shells:               9
      Number of primitives:             32
      Number of atomic orbitals:        25
      Number of basis functions:        24

      Number of irreps:                  4
      Number of functions per irrep: [  11    2    4    7 ]

      Overlap, kinetic, potential, dipole, and quadrupole integrals
        stored in file 35.

      Computing two-electron integrals...done
      Computed 11412 non-zero two-electron integrals.
        Stored in file 33.

  ==> Iterations <==

                        Total Energy        Delta E     Density RMS

   @RHF iter   1:   -68.85826293477302   -1.03313e+01   0.00000e+00 
	Occupation by irrep:
	         A1    A2    B1    B2 
	DOCC [     3,    0,    0,    2 ]

   @RHF iter   2:   -69.97015814023072   -1.11190e+00   5.62519e-01 DIIS
	Occupation by irrep:
	         A1    A2    B1    B2 
	DOCC [     3,    0,    1,    1 ]

   @RHF iter   3:   -75.72720987509724   -5.75705e+00   5.30223e-01 DIIS
   @RHF iter   4:   -76.00109987017071   -2.73890e-01   1.81816e-02 DIIS
   @RHF iter   5:   -76.02677629826906   -2.56764e-02   8.46528e-03 DIIS
   @RHF iter   6:   -76.02701378499189   -2.37487e-04   1.27698e-03 DIIS
   @RHF iter   7:   -76.02705186055005   -3.80756e-05   4.49723e-04 DIIS
   @RHF iter   8:   -76.02705337437432   -1.51382e-06   9.96919e-05 DIIS
   @RHF iter   9:   -76.02705345885262   -8.44783e-08   1.70598e-05 DIIS
   @RHF iter  10:   -76.02705345950741   -6.54794e-10   2.25608e-06 DIIS
   @RHF iter  11:   -76.02705345954861   -4.11973e-11   4.19079e-07 DIIS
   @RHF iter  12:   -76.02705345954976   -1.15108e-12   5.81990e-08 DIIS
   @RHF iter  13:   -76.02705345954980   -4.26326e-14   1.26421e-08 DIIS

  ==> Post-Iterations <==

	Orbital Energies (a.u.)
	-----------------------

	Doubly Occupied:                                                      

	   1A1   -20.548407     2A1    -1.342230     1B2    -0.705504  
	   3A1    -0.568311     1B1    -0.493908  

	Virtual:                                                              

	   4A1     0.187421     2B2     0.257803     3B2     0.797815  
	   5A1     0.864174     6A1     1.162602     2B1     1.200411  
	   4B2     1.252562     7A1     1.444269     1A2     1.478713  
	   3B1     1.677744     8A1     1.865376     5B2     1.946320  
	   6B2     2.479504     9A1     2.518080     4B1     3.294655  
	   2A2     3.350370    10A1     3.524427    11A1     3.879262  
	   7B2     4.159195  

	Final Occupation by Irrep:
	         A1    A2    B1    B2 
	DOCC [     3,    0,    1,    1 ]

  Energy converged.

  @RHF Final Energy:   -76.02705345954980

   => Energetics <=

    Nuclear Repulsion Energy =          9.3006181510410890
    One-Electron Energy =            -123.3386210002629753
    Two-Electron Energy =              38.0109493896720778
    DFT Functional Energy =             0.0000000000000000
    Empirical Dispersion Energy =       0.0000000000000000
    Total Energy =                    -76.0270534595498049

  ==> Properties <==

  Nuclear Dipole Moment: (a.u.)
     X:     0.0000      Y:     0.0000      Z:     0.9626

  Electronic Dipole Moment: (a.u.)
     X:     0.0000      Y:     0.0000      Z:    -0.1586

  Dipole Moment: (a.u.)
     X:     0.0000      Y:     0.0000      Z:     0.8040     Total:     0.8040

  Dipole Moment: (Debye)
     X:     0.0000      Y:     0.0000      Z:     2.0436     Total:     2.0436


  Saving occupied orbitals to File 180.

*** tstop() called on lawn-143-215-103-161.lawn.gatech.edu at Fri Apr 27 13:50:53 2012
Module time:
	user time   =       0.08 seconds =       0.00 minutes
	system time =       0.00 seconds =       0.00 minutes
	total time  =          1 seconds =       0.02 minutes
Total time:
	user time   =       0.54 seconds =       0.01 minutes
	system time =       0.06 seconds =       0.00 minutes
	total time  =          1 seconds =       0.02 minutes

*** tstart() called on lawn-143-215-103-161.lawn.gatech.edu
*** at Fri Apr 27 13:50:53 2012

 DERIV: Derivative code.
   by Justin Turney

  Cartesian Displacement SALCs
  By SALC:
  Number of SALCs: 3, nirreps: 1
  Project out translations: False
  Project out rotations: False
	irrep = 0, ncomponent = 1
		0: atom 0, direction z, coef 1.000000
	irrep = 0, ncomponent = 2
		0: atom 1, direction y, coef 0.707107
		1: atom 2, direction y, coef -0.707107
	irrep = 0, ncomponent = 2
		0: atom 1, direction z, coef 0.707107
		1: atom 2, direction z, coef 0.707107

  By Atomic Center:
  Number of atomic centers: 3
   Atomic Center 0:
	x component, size = 0
	y component, size = 0
	z component, size = 1
		0: salc 0, irrep 0, coef 1.000000
   Atomic Center 1:
	x component, size = 0
	y component, size = 1
		0: salc 1, irrep 0, coef 0.707107
	z component, size = 1
		0: salc 2, irrep 0, coef 0.707107
   Atomic Center 2:
	x component, size = 0
	y component, size = 1
		0: salc 1, irrep 0, coef -0.707107
	z component, size = 1
		0: salc 2, irrep 0, coef 0.707107

    Molecular point group: c2v

    Geometry (in Bohr), charge = 0, multiplicity = 1:

       Center              X                  Y                   Z       
    ------------   -----------------  -----------------  -----------------
           O          0.000000000000     0.000000000000    -0.122306639519
           H          0.000000000000    -1.415434300557     0.970547562451
           H          0.000000000000     1.415434300557     0.970547562451


  -Nuclear Repulsion Energy 1st Derivatives:
     Atom            X                  Y                   Z
    ------   -----------------  -----------------  -----------------
       1        0.000000000000     0.000000000000     3.057795280338
       2        0.000000000000     2.104970088621    -1.528897640169
       3        0.000000000000    -2.104970088621    -1.528897640169


  -One-electron contribution to gradient:
     Atom            X                  Y                   Z
    ------   -----------------  -----------------  -----------------
       1        0.000000000000     0.000000000000    -7.675817893695
       2        0.000000000000    -5.134965717132     3.837908946848
       3        0.000000000000     5.134965717132     3.837908946848


  -Lagrangian contribution to gradient:
     Atom            X                  Y                   Z
    ------   -----------------  -----------------  -----------------
       1        0.000000000000     0.000000000000     0.499793063807
       2        0.000000000000     0.305981778912    -0.249896531903
       3        0.000000000000    -0.305981778912    -0.249896531903


  -Two-electron contribution to gradient:
     Atom            X                  Y                   Z
    ------   -----------------  -----------------  -----------------
       1        0.000000000000     0.000000000000     4.118313863959
       2        0.000000000000     2.723941548772    -2.059156931979
       3        0.000000000000    -2.723941548772    -2.059156931979


  -Total gradient:
     Atom            X                  Y                   Z
    ------   -----------------  -----------------  -----------------
       1        0.000000000000     0.000000000000     0.000084314409
       2        0.000000000000    -0.000072300827    -0.000042157204
       3        0.000000000000     0.000072300827    -0.000042157204


*** tstop() called on lawn-143-215-103-161.lawn.gatech.edu at Fri Apr 27 13:50:53 2012
Module time:
	user time   =       0.15 seconds =       0.00 minutes
	system time =       0.01 seconds =       0.00 minutes
	total time  =          0 seconds =       0.00 minutes
Total time:
	user time   =       0.69 seconds =       0.01 minutes
	system time =       0.07 seconds =       0.00 minutes
	total time  =          1 seconds =       0.02 minutes

			----------------------------------
			 OPTKING: for geometry optimizations  
			  - R.A. King,  Bethel University   
			------------------------------------

	Previous internal coordinate definitions found.
	---Fragment 1 Geometry and Gradient---
	 O           0.0000000000        0.0000000000       -0.1223066395
	 H           0.0000000000       -1.4154343006        0.9705475625
	 H           0.0000000000        1.4154343006        0.9705475625
	             0.0000000000        0.0000000000        0.0000843144
	             0.0000000000       -0.0000723008       -0.0000421572
	             0.0000000000        0.0000723008       -0.0000421572

	---Fragment 1 Intrafragment Coordinates---
	 - Coordinate -           - BOHR/RAD -       - ANG/DEG -
	 R(1,2)           =         1.788235	       0.946293
	 R(1,3)           =         1.788235	       0.946293
	 B(2,1,3)         =         1.826604	     104.656672

	Current energy   :       -76.0270534595

	Energy change for the previous step:
		Projected    :        -0.0000108600
		Actual       :        -0.0000100924
	Energy ratio indicates good step: Trust radius increased to 1.000e+00.


	Performing BFGS update with previous 1 gradient(s).
	Going to follow RFO solution 1.
	Projected energy change by RFO approximation:        -0.0000000533

	Back-transformation to cartesian coordinates...
	Successfully converged to displaced geometry.

	---Internal Coordinate Step in ANG or DEG, aJ/ANG or AJ/DEG ---
	 ----------------------------------------------------------------------
	 Coordinate             Previous        Force       Change         New 
	 ----------             --------       ------       ------       ------
	 R(1,2)          =      0.946293    -0.000259    -0.000004     0.946289
	 R(1,3)          =      0.946293    -0.000259    -0.000004     0.946289
	 B(2,1,3)        =    104.656672    -0.000011    -0.043810   104.612862
	 ----------------------------------------------------------------------

  ==> Convergence Check <==

  Measures of convergence in internal coordinates in au.
  Criteria marked as inactive (o), active & met (*), and active & unmet ( ).
  ---------------------------------------------------------------------------------------------
   Step     Total Energy     Delta E     MAX Force     RMS Force      MAX Disp      RMS Disp   
  ---------------------------------------------------------------------------------------------
    Convergence Criteria    1.00e-06 *    3.00e-04 *             o    1.20e-03 *             o
  ---------------------------------------------------------------------------------------------
      3     -76.02705346   -1.01e-05      1.39e-04 *    8.41e-05 o    7.65e-04 *    4.42e-04 o  ~
  ---------------------------------------------------------------------------------------------


  **** Optimization is complete! ****

  ==> Optimization Summary <==

  Measures of convergence in internal coordinates in au.
  --------------------------------------------------------------------------------------------------------------- ~
   Step         Total Energy             Delta E       MAX Force       RMS Force        MAX Disp        RMS Disp  ~
  --------------------------------------------------------------------------------------------------------------- ~
      1     -76.026653661671    -76.026653661671      0.01523280      0.01245623      0.02741794      0.02278489  ~
      2     -76.027043367138     -0.000389705467      0.00178893      0.00143261      0.01008070      0.00595025  ~
      3     -76.027053459550     -0.000010092412      0.00013869      0.00008409      0.00076462      0.00044150  ~
  --------------------------------------------------------------------------------------------------------------- ~

	Writing optimization data to binary file.
	Final energy is    -76.0270534595498
	Final (previous) structure:
	Cartesian Geometry (au)
	    O     0.0000000000   0.0000000000  -0.1223066395
	    H     0.0000000000  -1.4154343006   0.9705475625
	    H     0.0000000000   1.4154343006   0.9705475625
	Saving final (previous) structure.
			--------------------------
			 OPTKING Finished Execution 
			--------------------------

	Final optimized geometry and variables (in Angstrom):

	O
	H     1    0.946293
	H     1    0.946293     2  104.656672


*** PSI4 exiting successfully. Buy a developer a beer!
