    -----------------------------------------------------------------------
          PSI4: An Open-Source Ab Initio Electronic Structure Package
                              PSI 4.0.0-beta1 Driver

               Git: Rev 8268e5ba0276eef671d5bc4a44cf66fa46407463

    J. M. Turney, A. C. Simmonett, R. M. Parrish, E. G. Hohenstein,
    F. A. Evangelista, J. T. Fermann, B. J. Mintz, L. A. Burns, J. J. Wilke,
    M. L. Abrams, N. J. Russ, M. L. Leininger, C. L. Janssen, E. T. Seidl,
    W. D. Allen, H. F. Schaefer, R. A. King, E. F. Valeev, C. D. Sherrill,
    and T. D. Crawford, WIREs Comput. Mol. Sci., (2011) (doi: 10.1002/wcms.93)

                         Additional Contributions by
    A. E. DePrince, M. Saitow, U. Bozkaya, A. Yu. Sokolov
    -----------------------------------------------------------------------


    Using LocalCommunicator (Number of processes = 1)

    Memory level set to 256.000 MB

  ==> Input File <==

--------------------------------------------------------------------------
#! Tests RHF/ROHF/UHF SCF gradients

molecule h2o {
0 1
O
H 1 R
H 1 R 2 A

R = 1.0
A = 104.5
}

set {
   reference rhf
   basis cc-pvdz
}

gradient('scf')
analytic = get_gradient()

set findif points 3
gradient('scf', dertype=0)
findif = get_gradient()

compare_matrices(analytic, findif, 5, "RHF SCF finite-diff (3-pt) vs. analytic gradient to 10^-5") #TEST

set findif points 5
gradient('scf', dertype=0)
findif = get_gradient()

compare_matrices(analytic, findif, 7, "RHF SCF finite-diff (5-pt) vs. analytic gradient to 10^-7") #TEST

molecule h2o {
0 3
O
H 1 R
H 1 R 2 A

R = 1.0
A = 104.5
}

set {
   reference rohf
   basis cc-pvdz
}

gradient('scf')
analytic = get_gradient()

set findif points 3
gradient('scf', dertype=0)
findif = get_gradient()

compare_matrices(analytic, findif, 5, "ROHF SCF finite-diff (3-pt) vs. analytic gradient to 10^-5") #TEST

set findif points 5
gradient('scf', dertype=0)
findif = get_gradient()

compare_matrices(analytic, findif, 7, "ROHF SCF finite-diff (5-pt) vs. analytic gradient to 10^-7") #TEST

molecule h2o {
0 3
O
H 1 R
H 1 R 2 A

R = 1.0
A = 104.5
}

set {
   reference uhf
   basis cc-pvdz
}

gradient('scf')
analytic = get_gradient()

set findif points 3
gradient('scf', dertype=0)
findif = get_gradient()

compare_matrices(analytic, findif, 5, "UHF SCF finite-diff (3-pt) vs. analytic gradient to 10^-5") #TEST

set findif points 5
gradient('scf', dertype=0)
findif = get_gradient()

compare_matrices(analytic, findif, 7, "UHF SCF finite-diff (5-pt) vs. analytic gradient to 10^-7") #TEST

--------------------------------------------------------------------------

*** tstart() called on lawn-143-215-103-161.lawn.gatech.edu
*** at Fri Apr 27 13:52:36 2012


         ---------------------------------------------------------
                                   SCF
            by Justin Turney, Rob Parrish, and Andy Simmonett
                              RHF Reference
                        1 Threads,    256 MiB Core
         ---------------------------------------------------------

  ==> Geometry <==

    Molecular point group: c2v

    Geometry (in Angstrom), charge = 0, multiplicity = 1:

       Center              X                  Y                   Z       
    ------------   -----------------  -----------------  -----------------
           O          0.000000000000     0.000000000000    -0.068516219310
           H          0.000000000000    -0.790689573744     0.543701060724
           H          0.000000000000     0.790689573744     0.543701060724

  Running in c2v symmetry.

  Nuclear repulsion =    8.801465529972068

  Charge       = 0
  Multiplicity = 1
  Electrons    = 10
  Nalpha       = 5
  Nbeta        = 5

  ==> Algorithm <==

  SCF Algorithm Type is PK.
  DIIS enabled.
  MOM disabled.
  Fractional occupation disabled.
  Guess Type is CORE.
  Energy threshold   = 1.00e-08
  Density threshold  = 1.00e-08
  Integral threshold = 0.00e+00

  ==> Primary Basis <==

  Basis Set: CC-PVDZ
    Number of shells: 12
    Number of basis function: 24
    Number of Cartesian functions: 25
    Spherical Harmonics?: true
    Max angular momentum: 2

  ==> Pre-Iterations <==

  Minimum eigenvalue in the overlap matrix is 3.7382439507E-02.
  Using Symmetric Orthogonalization.
  SCF Guess: Core (One-Electron) Hamiltonian.

  Initial RHF energy:   -58.68914707059002

   -------------------------------------------------------
    Irrep   Nso     Nmo     Nalpha   Nbeta   Ndocc  Nsocc
   -------------------------------------------------------
     A1        11      11       3       3       3       0
     A2         2       2       0       0       0       0
     B1         4       4       1       1       1       0
     B2         7       7       1       1       1       0
   -------------------------------------------------------
    Total      24      24       5       5       5       0
   -------------------------------------------------------

  ==> Integral Setup <==

 MINTS: Wrapper to libmints.
   by Justin Turney

   Calculation information:
      Number of atoms:                   3
      Number of AO shells:              12
      Number of SO shells:               9
      Number of primitives:             32
      Number of atomic orbitals:        25
      Number of basis functions:        24

      Number of irreps:                  4
      Number of functions per irrep: [  11    2    4    7 ]

      Overlap, kinetic, potential, dipole, and quadrupole integrals
        stored in file 35.

      Computing two-electron integrals...done
      Computed 11412 non-zero two-electron integrals.
        Stored in file 33.

  ==> Iterations <==

                        Total Energy        Delta E     Density RMS

   @RHF iter   1:   -68.92345273387485   -1.02343e+01   0.00000e+00 
	Occupation by irrep:
	         A1    A2    B1    B2 
	DOCC [     3,    0,    0,    2 ]

   @RHF iter   2:   -69.87832927887152   -9.54877e-01   5.29715e-01 DIIS
	Occupation by irrep:
	         A1    A2    B1    B2 
	DOCC [     3,    0,    1,    1 ]

   @RHF iter   3:   -75.76505683712057   -5.88673e+00   4.96564e-01 DIIS
   @RHF iter   4:   -75.99909055478021   -2.34034e-01   1.67112e-02 DIIS
   @RHF iter   5:   -76.02109883592941   -2.20083e-02   7.82169e-03 DIIS
   @RHF iter   6:   -76.02136729063051   -2.68455e-04   1.37201e-03 DIIS
   @RHF iter   7:   -76.02141644684095   -4.91562e-05   4.89170e-04 DIIS
   @RHF iter   8:   -76.02141833859494   -1.89175e-06   1.11626e-04 DIIS
   @RHF iter   9:   -76.02141844395759   -1.05363e-07   1.80568e-05 DIIS
   @RHF iter  10:   -76.02141844507096   -1.11338e-09   2.94238e-06 DIIS
   @RHF iter  11:   -76.02141844515262   -8.16556e-11   6.18360e-07 DIIS
   @RHF iter  12:   -76.02141844515495   -2.33058e-12   8.35457e-08 DIIS
   @RHF iter  13:   -76.02141844515494    1.42109e-14   1.55147e-08 DIIS

  ==> Post-Iterations <==

	Orbital Energies (a.u.)
	-----------------------

	Doubly Occupied:                                                      

	   1A1   -20.557846     2A1    -1.316181     1B2    -0.677073  
	   3A1    -0.558726     1B1    -0.490383  

	Virtual:                                                              

	   4A1     0.178011     2B2     0.249490     3B2     0.760274  
	   5A1     0.816118     6A1     1.166182     2B1     1.198611  
	   4B2     1.256467     7A1     1.452518     1A2     1.466082  
	   3B1     1.667951     8A1     1.877148     5B2     1.889827  
	   6B2     2.354901     9A1     2.388286     4B1     3.248786  
	   2A2     3.297834    10A1     3.453879    11A1     3.821364  
	   7B2     4.099041  

	Final Occupation by Irrep:
	         A1    A2    B1    B2 
	DOCC [     3,    0,    1,    1 ]

  Energy converged.

  @RHF Final Energy:   -76.02141844515494

   => Energetics <=

    Nuclear Repulsion Energy =          8.8014655299720683
    One-Electron Energy =            -122.4453516294463782
    Two-Electron Energy =              37.6224676543193794
    DFT Functional Energy =             0.0000000000000000
    Empirical Dispersion Energy =       0.0000000000000000
    Total Energy =                    -76.0214184451549357

  ==> Properties <==

  Nuclear Dipole Moment: (a.u.)
     X:     0.0000      Y:     0.0000      Z:     1.0191

  Electronic Dipole Moment: (a.u.)
     X:     0.0000      Y:     0.0000      Z:    -0.1947

  Dipole Moment: (a.u.)
     X:     0.0000      Y:     0.0000      Z:     0.8244     Total:     0.8244

  Dipole Moment: (Debye)
     X:     0.0000      Y:     0.0000      Z:     2.0955     Total:     2.0955


  Saving occupied orbitals to File 180.

*** tstop() called on lawn-143-215-103-161.lawn.gatech.edu at Fri Apr 27 13:52:36 2012
Module time:
	user time   =       0.08 seconds =       0.00 minutes
	system time =       0.01 seconds =       0.00 minutes
	total time  =          0 seconds =       0.00 minutes
Total time:
	user time   =       0.08 seconds =       0.00 minutes
	system time =       0.01 seconds =       0.00 minutes
	total time  =          0 seconds =       0.00 minutes

*** tstart() called on lawn-143-215-103-161.lawn.gatech.edu
*** at Fri Apr 27 13:52:36 2012

 DERIV: Derivative code.
   by Justin Turney

  Cartesian Displacement SALCs
  By SALC:
  Number of SALCs: 3, nirreps: 1
  Project out translations: False
  Project out rotations: False
	irrep = 0, ncomponent = 1
		0: atom 0, direction z, coef 1.000000
	irrep = 0, ncomponent = 2
		0: atom 1, direction y, coef 0.707107
		1: atom 2, direction y, coef -0.707107
	irrep = 0, ncomponent = 2
		0: atom 1, direction z, coef 0.707107
		1: atom 2, direction z, coef 0.707107

  By Atomic Center:
  Number of atomic centers: 3
   Atomic Center 0:
	x component, size = 0
	y component, size = 0
	z component, size = 1
		0: salc 0, irrep 0, coef 1.000000
   Atomic Center 1:
	x component, size = 0
	y component, size = 1
		0: salc 1, irrep 0, coef 0.707107
	z component, size = 1
		0: salc 2, irrep 0, coef 0.707107
   Atomic Center 2:
	x component, size = 0
	y component, size = 1
		0: salc 1, irrep 0, coef -0.707107
	z component, size = 1
		0: salc 2, irrep 0, coef 0.707107

    Molecular point group: c2v

    Geometry (in Bohr), charge = 0, multiplicity = 1:

       Center              X                  Y                   Z       
    ------------   -----------------  -----------------  -----------------
           O          0.000000000000     0.000000000000    -0.129476890157
           H          0.000000000000    -1.494186750504     1.027446102928
           H          0.000000000000     1.494186750504     1.027446102928


  -Nuclear Repulsion Energy 1st Derivatives:
     Atom            X                  Y                   Z
    ------   -----------------  -----------------  -----------------
       1        0.000000000000     0.000000000000     2.743012762845
       2        0.000000000000     1.883302402599    -1.371506381423
       3        0.000000000000    -1.883302402599    -1.371506381423


  -One-electron contribution to gradient:
     Atom            X                  Y                   Z
    ------   -----------------  -----------------  -----------------
       1        0.000000000000     0.000000000000    -7.161184936410
       2        0.000000000000    -4.775062278098     3.580592468205
       3        0.000000000000     4.775062278098     3.580592468205


  -Lagrangian contribution to gradient:
     Atom            X                  Y                   Z
    ------   -----------------  -----------------  -----------------
       1        0.000000000000     0.000000000000     0.468073932639
       2        0.000000000000     0.284678630567    -0.234036966320
       3        0.000000000000    -0.284678630567    -0.234036966320


  -Two-electron contribution to gradient:
     Atom            X                  Y                   Z
    ------   -----------------  -----------------  -----------------
       1        0.000000000000     0.000000000000     3.890513059492
       2        0.000000000000     2.564034784262    -1.945256529746
       3        0.000000000000    -2.564034784262    -1.945256529746


  -Total gradient:
     Atom            X                  Y                   Z
    ------   -----------------  -----------------  -----------------
       1        0.000000000000     0.000000000000    -0.059585181433
       2        0.000000000000    -0.043046460671     0.029792590716
       3        0.000000000000     0.043046460671     0.029792590716


*** tstop() called on lawn-143-215-103-161.lawn.gatech.edu at Fri Apr 27 13:52:37 2012
Module time:
	user time   =       0.15 seconds =       0.00 minutes
	system time =       0.02 seconds =       0.00 minutes
	total time  =          1 seconds =       0.02 minutes
Total time:
	user time   =       0.23 seconds =       0.00 minutes
	system time =       0.03 seconds =       0.00 minutes
	total time  =          1 seconds =       0.02 minutes

-------------------------------------------------------------

  Using finite-differences of energies to determine gradients (fd_geoms_1_0).
	Generating geometries for use with 3-point formula.
	Displacement size will be 5.00e-03.
	Number of atoms is 3.
	Number of symmetric SALC's is 2.
	Number of displacements (including reference) is 5.

-------------------------------------------------------------

  //>>>>>>>>>>>>>>>>>>>>>>>>>>>>>>>>>>>//
  //    Loading displacement 1 of 5    //
  //<<<<<<<<<<<<<<<<<<<<<<<<<<<<<<<<<<<//

*** tstart() called on lawn-143-215-103-161.lawn.gatech.edu
*** at Fri Apr 27 13:52:37 2012


         ---------------------------------------------------------
                                   SCF
            by Justin Turney, Rob Parrish, and Andy Simmonett
                              RHF Reference
                        1 Threads,    256 MiB Core
         ---------------------------------------------------------

  ==> Geometry <==

    Molecular point group: c2v

    Geometry (in Angstrom), charge = 0, multiplicity = 1:

       Center              X                  Y                   Z       
    ------------   -----------------  -----------------  -----------------
           O          0.000000000000     0.000000000000    -0.068737541050
           H          0.000000000000    -0.790689573744     0.545457329036
           H          0.000000000000     0.790689573744     0.545457329036

  Running in c2v symmetry.

  Nuclear repulsion =    8.791216689717068

  Charge       = 0
  Multiplicity = 1
  Electrons    = 10
  Nalpha       = 5
  Nbeta        = 5

  ==> Algorithm <==

  SCF Algorithm Type is PK.
  DIIS enabled.
  MOM disabled.
  Fractional occupation disabled.
  Guess Type is CORE.
  Energy threshold   = 1.00e-08
  Density threshold  = 1.00e-08
  Integral threshold = 0.00e+00

  ==> Primary Basis <==

  Basis Set: CC-PVDZ
    Number of shells: 12
    Number of basis function: 24
    Number of Cartesian functions: 25
    Spherical Harmonics?: true
    Max angular momentum: 2

  ==> Pre-Iterations <==

  Minimum eigenvalue in the overlap matrix is 3.7444245165E-02.
  Using Symmetric Orthogonalization.
  SCF Guess: Core (One-Electron) Hamiltonian.

  Initial RHF energy:   -58.69232549065359

   -------------------------------------------------------
    Irrep   Nso     Nmo     Nalpha   Nbeta   Ndocc  Nsocc
   -------------------------------------------------------
     A1        11      11       3       3       3       0
     A2         2       2       0       0       0       0
     B1         4       4       1       1       1       0
     B2         7       7       1       1       1       0
   -------------------------------------------------------
    Total      24      24       5       5       5       0
   -------------------------------------------------------

  ==> Integral Setup <==

 MINTS: Wrapper to libmints.
   by Justin Turney

   Calculation information:
      Number of atoms:                   3
      Number of AO shells:              12
      Number of SO shells:               9
      Number of primitives:             32
      Number of atomic orbitals:        25
      Number of basis functions:        24

      Number of irreps:                  4
      Number of functions per irrep: [  11    2    4    7 ]

      Overlap, kinetic, potential, dipole, and quadrupole integrals
        stored in file 35.

      Computing two-electron integrals...done
      Computed 11412 non-zero two-electron integrals.
        Stored in file 33.

  ==> Iterations <==

                        Total Energy        Delta E     Density RMS

   @RHF iter   1:   -68.92423056204805   -1.02319e+01   0.00000e+00 
	Occupation by irrep:
	         A1    A2    B1    B2 
	DOCC [     3,    0,    0,    2 ]

   @RHF iter   2:   -69.87270174495859   -9.48471e-01   5.29408e-01 DIIS
	Occupation by irrep:
	         A1    A2    B1    B2 
	DOCC [     3,    0,    1,    1 ]

   @RHF iter   3:   -75.76568417094973   -5.89298e+00   4.96256e-01 DIIS
   @RHF iter   4:   -75.99893807411922   -2.33254e-01   1.66859e-02 DIIS
   @RHF iter   5:   -76.02087169249987   -2.19336e-02   7.81165e-03 DIIS
   @RHF iter   6:   -76.02114132760184   -2.69635e-04   1.37655e-03 DIIS
   @RHF iter   7:   -76.02119080392384   -4.94763e-05   4.90199e-04 DIIS
   @RHF iter   8:   -76.02119270201902   -1.89810e-06   1.11785e-04 DIIS
   @RHF iter   9:   -76.02119280793133   -1.05912e-07   1.80527e-05 DIIS
   @RHF iter  10:   -76.02119280904421   -1.11288e-09   2.93999e-06 DIIS
   @RHF iter  11:   -76.02119280912629   -8.20819e-11   6.20014e-07 DIIS
   @RHF iter  12:   -76.02119280912868   -2.38742e-12   8.43113e-08 DIIS
   @RHF iter  13:   -76.02119280912868    0.00000e+00   1.55978e-08 DIIS

  ==> Post-Iterations <==

	Orbital Energies (a.u.)
	-----------------------

	Doubly Occupied:                                                      

	   1A1   -20.558159     2A1    -1.315768     1B2    -0.676156  
	   3A1    -0.558864     1B1    -0.490384  

	Virtual:                                                              

	   4A1     0.177764     2B2     0.249289     3B2     0.758928  
	   5A1     0.815853     6A1     1.166362     2B1     1.198465  
	   4B2     1.256781     7A1     1.451154     1A2     1.466365  
	   3B1     1.666897     8A1     1.877064     5B2     1.889562  
	   6B2     2.351821     9A1     2.385806     4B1     3.248601  
	   2A2     3.296070    10A1     3.453030    11A1     3.818928  
	   7B2     4.098586  

	Final Occupation by Irrep:
	         A1    A2    B1    B2 
	DOCC [     3,    0,    1,    1 ]

  Energy converged.

  @RHF Final Energy:   -76.02119280912868

   => Energetics <=

    Nuclear Repulsion Energy =          8.7912166897170678
    One-Electron Energy =            -122.4261582065421408
    Two-Electron Energy =              37.6137487076963879
    DFT Functional Energy =             0.0000000000000000
    Empirical Dispersion Energy =       0.0000000000000000
    Total Energy =                    -76.0211928091286921

  ==> Properties <==

  Nuclear Dipole Moment: (a.u.)
     X:     0.0000      Y:    -0.0000      Z:     1.0224

  Electronic Dipole Moment: (a.u.)
     X:     0.0000      Y:     0.0000      Z:    -0.1964

  Dipole Moment: (a.u.)
     X:     0.0000      Y:    -0.0000      Z:     0.8259     Total:     0.8259

  Dipole Moment: (Debye)
     X:     0.0000      Y:    -0.0000      Z:     2.0993     Total:     2.0993


  Saving occupied orbitals to File 180.

*** tstop() called on lawn-143-215-103-161.lawn.gatech.edu at Fri Apr 27 13:52:37 2012
Module time:
	user time   =       0.08 seconds =       0.00 minutes
	system time =       0.01 seconds =       0.00 minutes
	total time  =          0 seconds =       0.00 minutes
Total time:
	user time   =       0.31 seconds =       0.01 minutes
	system time =       0.04 seconds =       0.00 minutes
	total time  =          1 seconds =       0.02 minutes

  //>>>>>>>>>>>>>>>>>>>>>>>>>>>>>>>>>>>//
  //    Loading displacement 2 of 5    //
  //<<<<<<<<<<<<<<<<<<<<<<<<<<<<<<<<<<<//

*** tstart() called on lawn-143-215-103-161.lawn.gatech.edu
*** at Fri Apr 27 13:52:37 2012


         ---------------------------------------------------------
                                   SCF
            by Justin Turney, Rob Parrish, and Andy Simmonett
                              RHF Reference
                        1 Threads,    256 MiB Core
         ---------------------------------------------------------

  ==> Geometry <==

    Molecular point group: c2v

    Geometry (in Angstrom), charge = 0, multiplicity = 1:

       Center              X                  Y                   Z       
    ------------   -----------------  -----------------  -----------------
           O          0.000000000000     0.000000000000    -0.068294897570
           H          0.000000000000    -0.790689573744     0.541944792413
           H          0.000000000000     0.790689573744     0.541944792413

  Running in c2v symmetry.

  Nuclear repulsion =    8.811718490323456

  Charge       = 0
  Multiplicity = 1
  Electrons    = 10
  Nalpha       = 5
  Nbeta        = 5

  ==> Algorithm <==

  SCF Algorithm Type is PK.
  DIIS enabled.
  MOM disabled.
  Fractional occupation disabled.
  Guess Type is CORE.
  Energy threshold   = 1.00e-08
  Density threshold  = 1.00e-08
  Integral threshold = 0.00e+00

  ==> Primary Basis <==

  Basis Set: CC-PVDZ
    Number of shells: 12
    Number of basis function: 24
    Number of Cartesian functions: 25
    Spherical Harmonics?: true
    Max angular momentum: 2

  ==> Pre-Iterations <==

  Minimum eigenvalue in the overlap matrix is 3.7321016136E-02.
  Using Symmetric Orthogonalization.
  SCF Guess: Core (One-Electron) Hamiltonian.

  Initial RHF energy:   -58.68596795352057

   -------------------------------------------------------
    Irrep   Nso     Nmo     Nalpha   Nbeta   Ndocc  Nsocc
   -------------------------------------------------------
     A1        11      11       3       3       3       0
     A2         2       2       0       0       0       0
     B1         4       4       1       1       1       0
     B2         7       7       1       1       1       0
   -------------------------------------------------------
    Total      24      24       5       5       5       0
   -------------------------------------------------------

  ==> Integral Setup <==

 MINTS: Wrapper to libmints.
   by Justin Turney

   Calculation information:
      Number of atoms:                   3
      Number of AO shells:              12
      Number of SO shells:               9
      Number of primitives:             32
      Number of atomic orbitals:        25
      Number of basis functions:        24

      Number of irreps:                  4
      Number of functions per irrep: [  11    2    4    7 ]

      Overlap, kinetic, potential, dipole, and quadrupole integrals
        stored in file 35.

      Computing two-electron integrals...done
      Computed 11412 non-zero two-electron integrals.
        Stored in file 33.

  ==> Iterations <==

                        Total Energy        Delta E     Density RMS

   @RHF iter   1:   -68.92266791226390   -1.02367e+01   0.00000e+00 
	Occupation by irrep:
	         A1    A2    B1    B2 
	DOCC [     3,    0,    0,    2 ]

   @RHF iter   2:   -69.88392222926434   -9.61254e-01   5.30024e-01 DIIS
	Occupation by irrep:
	         A1    A2    B1    B2 
	DOCC [     3,    0,    1,    1 ]

   @RHF iter   3:   -75.76442120050088   -5.88050e+00   4.96873e-01 DIIS
   @RHF iter   4:   -75.99923696879203   -2.34816e-01   1.67366e-02 DIIS
   @RHF iter   5:   -76.02132003931493   -2.20831e-02   7.83176e-03 DIIS
   @RHF iter   6:   -76.02158732461164   -2.67285e-04   1.36747e-03 DIIS
   @RHF iter   7:   -76.02163616272031   -4.88381e-05   4.88136e-04 DIIS
   @RHF iter   8:   -76.02163804808343   -1.88536e-06   1.11466e-04 DIIS
   @RHF iter   9:   -76.02163815290244   -1.04819e-07   1.80616e-05 DIIS
   @RHF iter  10:   -76.02163815401636   -1.11392e-09   2.94496e-06 DIIS
   @RHF iter  11:   -76.02163815409754   -8.11866e-11   6.16698e-07 DIIS
   @RHF iter  12:   -76.02163815409988   -2.33058e-12   8.27908e-08 DIIS
   @RHF iter  13:   -76.02163815409990   -2.84217e-14   1.54318e-08 DIIS

  ==> Post-Iterations <==

	Orbital Energies (a.u.)
	-----------------------

	Doubly Occupied:                                                      

	   1A1   -20.557533     2A1    -1.316593     1B2    -0.677992  
	   3A1    -0.558587     1B1    -0.490381  

	Virtual:                                                              

	   4A1     0.178258     2B2     0.249688     3B2     0.761628  
	   5A1     0.816377     6A1     1.166005     2B1     1.198754  
	   4B2     1.256155     7A1     1.453883     1A2     1.465798  
	   3B1     1.669011     8A1     1.877238     5B2     1.890087  
	   6B2     2.357996     9A1     2.390768     4B1     3.248959  
	   2A2     3.299601    10A1     3.454690    11A1     3.823838  
	   7B2     4.099477  

	Final Occupation by Irrep:
	         A1    A2    B1    B2 
	DOCC [     3,    0,    1,    1 ]

  Energy converged.

  @RHF Final Energy:   -76.02163815409990

   => Energetics <=

    Nuclear Repulsion Energy =          8.8117184903234556
    One-Electron Energy =            -122.4645408685229881
    Two-Electron Energy =              37.6311842240996555
    DFT Functional Energy =             0.0000000000000000
    Empirical Dispersion Energy =       0.0000000000000000
    Total Energy =                    -76.0216381540998754

  ==> Properties <==

  Nuclear Dipole Moment: (a.u.)
     X:     0.0000      Y:     0.0000      Z:     1.0158

  Electronic Dipole Moment: (a.u.)
     X:     0.0000      Y:     0.0000      Z:    -0.1929

  Dipole Moment: (a.u.)
     X:     0.0000      Y:     0.0000      Z:     0.8229     Total:     0.8229

  Dipole Moment: (Debye)
     X:     0.0000      Y:     0.0000      Z:     2.0916     Total:     2.0916


  Saving occupied orbitals to File 180.

*** tstop() called on lawn-143-215-103-161.lawn.gatech.edu at Fri Apr 27 13:52:37 2012
Module time:
	user time   =       0.08 seconds =       0.00 minutes
	system time =       0.01 seconds =       0.00 minutes
	total time  =          0 seconds =       0.00 minutes
Total time:
	user time   =       0.39 seconds =       0.01 minutes
	system time =       0.05 seconds =       0.00 minutes
	total time  =          1 seconds =       0.02 minutes

  //>>>>>>>>>>>>>>>>>>>>>>>>>>>>>>>>>>>//
  //    Loading displacement 3 of 5    //
  //<<<<<<<<<<<<<<<<<<<<<<<<<<<<<<<<<<<//

*** tstart() called on lawn-143-215-103-161.lawn.gatech.edu
*** at Fri Apr 27 13:52:37 2012


         ---------------------------------------------------------
                                   SCF
            by Justin Turney, Rob Parrish, and Andy Simmonett
                              RHF Reference
                        1 Threads,    256 MiB Core
         ---------------------------------------------------------

  ==> Geometry <==

    Molecular point group: c2v

    Geometry (in Angstrom), charge = 0, multiplicity = 1:

       Center              X                  Y                   Z       
    ------------   -----------------  -----------------  -----------------
           O          0.000000000000     0.000000000000    -0.068516219310
           H          0.000000000000    -0.792553220368     0.543701060724
           H          0.000000000000     0.792553220368     0.543701060724

  Running in c2v symmetry.

  Nuclear repulsion =    8.788215095736607

  Charge       = 0
  Multiplicity = 1
  Electrons    = 10
  Nalpha       = 5
  Nbeta        = 5

  ==> Algorithm <==

  SCF Algorithm Type is PK.
  DIIS enabled.
  MOM disabled.
  Fractional occupation disabled.
  Guess Type is CORE.
  Energy threshold   = 1.00e-08
  Density threshold  = 1.00e-08
  Integral threshold = 0.00e+00

  ==> Primary Basis <==

  Basis Set: CC-PVDZ
    Number of shells: 12
    Number of basis function: 24
    Number of Cartesian functions: 25
    Spherical Harmonics?: true
    Max angular momentum: 2

  ==> Pre-Iterations <==

  Minimum eigenvalue in the overlap matrix is 3.7523591497E-02.
  Using Symmetric Orthogonalization.
  SCF Guess: Core (One-Electron) Hamiltonian.

  Initial RHF energy:   -58.69364623691382

   -------------------------------------------------------
    Irrep   Nso     Nmo     Nalpha   Nbeta   Ndocc  Nsocc
   -------------------------------------------------------
     A1        11      11       3       3       3       0
     A2         2       2       0       0       0       0
     B1         4       4       1       1       1       0
     B2         7       7       1       1       1       0
   -------------------------------------------------------
    Total      24      24       5       5       5       0
   -------------------------------------------------------

  ==> Integral Setup <==

 MINTS: Wrapper to libmints.
   by Justin Turney

   Calculation information:
      Number of atoms:                   3
      Number of AO shells:              12
      Number of SO shells:               9
      Number of primitives:             32
      Number of atomic orbitals:        25
      Number of basis functions:        24

      Number of irreps:                  4
      Number of functions per irrep: [  11    2    4    7 ]

      Overlap, kinetic, potential, dipole, and quadrupole integrals
        stored in file 35.

      Computing two-electron integrals...done
      Computed 11412 non-zero two-electron integrals.
        Stored in file 33.

  ==> Iterations <==

                        Total Energy        Delta E     Density RMS

   @RHF iter   1:   -68.92521748570513   -1.02316e+01   0.00000e+00 
	Occupation by irrep:
	         A1    A2    B1    B2 
	DOCC [     3,    0,    0,    2 ]

   @RHF iter   2:   -69.87801342341633   -9.52796e-01   5.28603e-01 DIIS
	Occupation by irrep:
	         A1    A2    B1    B2 
	DOCC [     3,    0,    1,    1 ]

   @RHF iter   3:   -75.76587633421921   -5.88786e+00   4.95407e-01 DIIS
   @RHF iter   4:   -75.99887296923266   -2.32997e-01   1.66706e-02 DIIS
   @RHF iter   5:   -76.02079039205159   -2.19174e-02   7.80330e-03 DIIS
   @RHF iter   6:   -76.02105962621144   -2.69234e-04   1.37297e-03 DIIS
   @RHF iter   7:   -76.02110908321514   -4.94570e-05   4.90088e-04 DIIS
   @RHF iter   8:   -76.02111098540584   -1.90219e-06   1.11970e-04 DIIS
   @RHF iter   9:   -76.02111109134194   -1.05936e-07   1.80990e-05 DIIS
   @RHF iter  10:   -76.02111109248052   -1.13859e-09   2.97730e-06 DIIS
   @RHF iter  11:   -76.02111109256428   -8.37588e-11   6.27426e-07 DIIS
   @RHF iter  12:   -76.02111109256666   -2.37321e-12   8.42505e-08 DIIS
   @RHF iter  13:   -76.02111109256671   -5.68434e-14   1.55690e-08 DIIS

  ==> Post-Iterations <==

	Orbital Energies (a.u.)
	-----------------------

	Doubly Occupied:                                                      

	   1A1   -20.558019     2A1    -1.315419     1B2    -0.676559  
	   3A1    -0.558194     1B1    -0.490247  

	Virtual:                                                              

	   4A1     0.177754     2B2     0.249234     3B2     0.759758  
	   5A1     0.814322     6A1     1.166183     2B1     1.198546  
	   4B2     1.256445     7A1     1.454019     1A2     1.465368  
	   3B1     1.668431     8A1     1.877778     5B2     1.887659  
	   6B2     2.351931     9A1     2.384790     4B1     3.246938  
	   2A2     3.296921    10A1     3.451365    11A1     3.820798  
	   7B2     4.096696  

	Final Occupation by Irrep:
	         A1    A2    B1    B2 
	DOCC [     3,    0,    1,    1 ]

  Energy converged.

  @RHF Final Energy:   -76.02111109256671

   => Energetics <=

    Nuclear Repulsion Energy =          8.7882150957366072
    One-Electron Energy =            -122.4217766070977973
    Two-Electron Energy =              37.6124504187944950
    DFT Functional Energy =             0.0000000000000000
    Empirical Dispersion Energy =       0.0000000000000000
    Total Energy =                    -76.0211110925666986

  ==> Properties <==

  Nuclear Dipole Moment: (a.u.)
     X:     0.0000      Y:     0.0000      Z:     1.0191

  Electronic Dipole Moment: (a.u.)
     X:     0.0000      Y:     0.0000      Z:    -0.1950

  Dipole Moment: (a.u.)
     X:     0.0000      Y:     0.0000      Z:     0.8241     Total:     0.8241

  Dipole Moment: (Debye)
     X:     0.0000      Y:     0.0000      Z:     2.0947     Total:     2.0947


  Saving occupied orbitals to File 180.

*** tstop() called on lawn-143-215-103-161.lawn.gatech.edu at Fri Apr 27 13:52:37 2012
Module time:
	user time   =       0.08 seconds =       0.00 minutes
	system time =       0.01 seconds =       0.00 minutes
	total time  =          0 seconds =       0.00 minutes
Total time:
	user time   =       0.47 seconds =       0.01 minutes
	system time =       0.06 seconds =       0.00 minutes
	total time  =          1 seconds =       0.02 minutes

  //>>>>>>>>>>>>>>>>>>>>>>>>>>>>>>>>>>>//
  //    Loading displacement 4 of 5    //
  //<<<<<<<<<<<<<<<<<<<<<<<<<<<<<<<<<<<//

*** tstart() called on lawn-143-215-103-161.lawn.gatech.edu
*** at Fri Apr 27 13:52:37 2012


         ---------------------------------------------------------
                                   SCF
            by Justin Turney, Rob Parrish, and Andy Simmonett
                              RHF Reference
                        1 Threads,    256 MiB Core
         ---------------------------------------------------------

  ==> Geometry <==

    Molecular point group: c2v

    Geometry (in Angstrom), charge = 0, multiplicity = 1:

       Center              X                  Y                   Z       
    ------------   -----------------  -----------------  -----------------
           O          0.000000000000     0.000000000000    -0.068516219310
           H          0.000000000000    -0.788825927119     0.543701060724
           H          0.000000000000     0.788825927119     0.543701060724

  Running in c2v symmetry.

  Nuclear repulsion =    8.814745429922915

  Charge       = 0
  Multiplicity = 1
  Electrons    = 10
  Nalpha       = 5
  Nbeta        = 5

  ==> Algorithm <==

  SCF Algorithm Type is PK.
  DIIS enabled.
  MOM disabled.
  Fractional occupation disabled.
  Guess Type is CORE.
  Energy threshold   = 1.00e-08
  Density threshold  = 1.00e-08
  Integral threshold = 0.00e+00

  ==> Primary Basis <==

  Basis Set: CC-PVDZ
    Number of shells: 12
    Number of basis function: 24
    Number of Cartesian functions: 25
    Spherical Harmonics?: true
    Max angular momentum: 2

  ==> Pre-Iterations <==

  Minimum eigenvalue in the overlap matrix is 3.7242293004E-02.
  Using Symmetric Orthogonalization.
  SCF Guess: Core (One-Electron) Hamiltonian.

  Initial RHF energy:   -58.68464020797096

   -------------------------------------------------------
    Irrep   Nso     Nmo     Nalpha   Nbeta   Ndocc  Nsocc
   -------------------------------------------------------
     A1        11      11       3       3       3       0
     A2         2       2       0       0       0       0
     B1         4       4       1       1       1       0
     B2         7       7       1       1       1       0
   -------------------------------------------------------
    Total      24      24       5       5       5       0
   -------------------------------------------------------

  ==> Integral Setup <==

 MINTS: Wrapper to libmints.
   by Justin Turney

   Calculation information:
      Number of atoms:                   3
      Number of AO shells:              12
      Number of SO shells:               9
      Number of primitives:             32
      Number of atomic orbitals:        25
      Number of basis functions:        24

      Number of irreps:                  4
      Number of functions per irrep: [  11    2    4    7 ]

      Overlap, kinetic, potential, dipole, and quadrupole integrals
        stored in file 35.

      Computing two-electron integrals...done
      Computed 11412 non-zero two-electron integrals.
        Stored in file 33.

  ==> Iterations <==

                        Total Energy        Delta E     Density RMS

   @RHF iter   1:   -68.92166805488424   -1.02370e+01   0.00000e+00 
	Occupation by irrep:
	         A1    A2    B1    B2 
	DOCC [     3,    0,    0,    2 ]

   @RHF iter   2:   -69.87862475025727   -9.56957e-01   5.30835e-01 DIIS
	Occupation by irrep:
	         A1    A2    B1    B2 
	DOCC [     3,    0,    1,    1 ]

   @RHF iter   3:   -75.76422423897952   -5.88560e+00   4.97729e-01 DIIS
   @RHF iter   4:   -75.99929935763706   -2.35075e-01   1.67519e-02 DIIS
   @RHF iter   5:   -76.02139894191797   -2.20996e-02   7.84020e-03 DIIS
   @RHF iter   6:   -76.02166662379020   -2.67682e-04   1.37107e-03 DIIS
   @RHF iter   7:   -76.02171548126208   -4.88575e-05   4.88257e-04 DIIS
   @RHF iter   8:   -76.02171736257458   -1.88131e-06   1.11282e-04 DIIS
   @RHF iter   9:   -76.02171746736693   -1.04792e-07   1.80146e-05 DIIS
   @RHF iter  10:   -76.02171746845565   -1.08872e-09   2.90781e-06 DIIS
   @RHF iter  11:   -76.02171746853520   -7.95524e-11   6.09370e-07 DIIS
   @RHF iter  12:   -76.02171746853745   -2.24532e-12   8.28410e-08 DIIS
   @RHF iter  13:   -76.02171746853742    2.84217e-14   1.54601e-08 DIIS

  ==> Post-Iterations <==

	Orbital Energies (a.u.)
	-----------------------

	Doubly Occupied:                                                      

	   1A1   -20.557672     2A1    -1.316945     1B2    -0.677586  
	   3A1    -0.559259     1B1    -0.490519  

	Virtual:                                                              

	   4A1     0.178267     2B2     0.249745     3B2     0.760792  
	   5A1     0.817921     6A1     1.166184     2B1     1.198673  
	   4B2     1.256490     7A1     1.451011     1A2     1.466802  
	   3B1     1.667465     8A1     1.876517     5B2     1.892008  
	   6B2     2.357875     9A1     2.391801     4B1     3.250641  
	   2A2     3.298744    10A1     3.456380    11A1     3.821933  
	   7B2     4.101389  

	Final Occupation by Irrep:
	         A1    A2    B1    B2 
	DOCC [     3,    0,    1,    1 ]

  Energy converged.

  @RHF Final Energy:   -76.02171746853742

   => Energetics <=

    Nuclear Repulsion Energy =          8.8147454299229153
    One-Electron Energy =            -122.4689635962691341
    Two-Electron Energy =              37.6325006978087799
    DFT Functional Energy =             0.0000000000000000
    Empirical Dispersion Energy =       0.0000000000000000
    Total Energy =                    -76.0217174685374459

  ==> Properties <==

  Nuclear Dipole Moment: (a.u.)
     X:     0.0000      Y:     0.0000      Z:     1.0191

  Electronic Dipole Moment: (a.u.)
     X:     0.0000      Y:     0.0000      Z:    -0.1944

  Dipole Moment: (a.u.)
     X:     0.0000      Y:     0.0000      Z:     0.8247     Total:     0.8247

  Dipole Moment: (Debye)
     X:     0.0000      Y:     0.0000      Z:     2.0962     Total:     2.0962


  Saving occupied orbitals to File 180.

*** tstop() called on lawn-143-215-103-161.lawn.gatech.edu at Fri Apr 27 13:52:37 2012
Module time:
	user time   =       0.08 seconds =       0.00 minutes
	system time =       0.01 seconds =       0.00 minutes
	total time  =          0 seconds =       0.00 minutes
Total time:
	user time   =       0.55 seconds =       0.01 minutes
	system time =       0.07 seconds =       0.00 minutes
	total time  =          1 seconds =       0.02 minutes

  //>>>>>>>>>>>>>>>>>>>>>>>>>>>>>>>>>>>//
  //    Loading displacement 5 of 5    //
  //<<<<<<<<<<<<<<<<<<<<<<<<<<<<<<<<<<<//

*** tstart() called on lawn-143-215-103-161.lawn.gatech.edu
*** at Fri Apr 27 13:52:37 2012


         ---------------------------------------------------------
                                   SCF
            by Justin Turney, Rob Parrish, and Andy Simmonett
                              RHF Reference
                        1 Threads,    256 MiB Core
         ---------------------------------------------------------

  ==> Geometry <==

    Molecular point group: c2v

    Geometry (in Angstrom), charge = 0, multiplicity = 1:

       Center              X                  Y                   Z       
    ------------   -----------------  -----------------  -----------------
           O          0.000000000000     0.000000000000    -0.068516219310
           H          0.000000000000    -0.790689573744     0.543701060724
           H          0.000000000000     0.790689573744     0.543701060724

  Running in c2v symmetry.

  Nuclear repulsion =    8.801465529972067

  Charge       = 0
  Multiplicity = 1
  Electrons    = 10
  Nalpha       = 5
  Nbeta        = 5

  ==> Algorithm <==

  SCF Algorithm Type is PK.
  DIIS enabled.
  MOM disabled.
  Fractional occupation disabled.
  Guess Type is CORE.
  Energy threshold   = 1.00e-08
  Density threshold  = 1.00e-08
  Integral threshold = 0.00e+00

  ==> Primary Basis <==

  Basis Set: CC-PVDZ
    Number of shells: 12
    Number of basis function: 24
    Number of Cartesian functions: 25
    Spherical Harmonics?: true
    Max angular momentum: 2

  ==> Pre-Iterations <==

  Minimum eigenvalue in the overlap matrix is 3.7382439507E-02.
  Using Symmetric Orthogonalization.
  SCF Guess: Core (One-Electron) Hamiltonian.

  Initial RHF energy:   -58.68914707059002

   -------------------------------------------------------
    Irrep   Nso     Nmo     Nalpha   Nbeta   Ndocc  Nsocc
   -------------------------------------------------------
     A1        11      11       3       3       3       0
     A2         2       2       0       0       0       0
     B1         4       4       1       1       1       0
     B2         7       7       1       1       1       0
   -------------------------------------------------------
    Total      24      24       5       5       5       0
   -------------------------------------------------------

  ==> Integral Setup <==

 MINTS: Wrapper to libmints.
   by Justin Turney

   Calculation information:
      Number of atoms:                   3
      Number of AO shells:              12
      Number of SO shells:               9
      Number of primitives:             32
      Number of atomic orbitals:        25
      Number of basis functions:        24

      Number of irreps:                  4
      Number of functions per irrep: [  11    2    4    7 ]

      Overlap, kinetic, potential, dipole, and quadrupole integrals
        stored in file 35.

      Computing two-electron integrals...done
      Computed 11412 non-zero two-electron integrals.
        Stored in file 33.

  ==> Iterations <==

                        Total Energy        Delta E     Density RMS

   @RHF iter   1:   -68.92345273387484   -1.02343e+01   0.00000e+00 
	Occupation by irrep:
	         A1    A2    B1    B2 
	DOCC [     3,    0,    0,    2 ]

   @RHF iter   2:   -69.87832927887140   -9.54877e-01   5.29715e-01 DIIS
	Occupation by irrep:
	         A1    A2    B1    B2 
	DOCC [     3,    0,    1,    1 ]

   @RHF iter   3:   -75.76505683712055   -5.88673e+00   4.96564e-01 DIIS
   @RHF iter   4:   -75.99909055478025   -2.34034e-01   1.67112e-02 DIIS
   @RHF iter   5:   -76.02109883592939   -2.20083e-02   7.82169e-03 DIIS
   @RHF iter   6:   -76.02136729063048   -2.68455e-04   1.37201e-03 DIIS
   @RHF iter   7:   -76.02141644684097   -4.91562e-05   4.89170e-04 DIIS
   @RHF iter   8:   -76.02141833859491   -1.89175e-06   1.11626e-04 DIIS
   @RHF iter   9:   -76.02141844395756   -1.05363e-07   1.80568e-05 DIIS
   @RHF iter  10:   -76.02141844507092   -1.11336e-09   2.94238e-06 DIIS
   @RHF iter  11:   -76.02141844515258   -8.16556e-11   6.18360e-07 DIIS
   @RHF iter  12:   -76.02141844515486   -2.28795e-12   8.35457e-08 DIIS
   @RHF iter  13:   -76.02141844515491   -4.26326e-14   1.55147e-08 DIIS

  ==> Post-Iterations <==

	Orbital Energies (a.u.)
	-----------------------

	Doubly Occupied:                                                      

	   1A1   -20.557846     2A1    -1.316181     1B2    -0.677073  
	   3A1    -0.558726     1B1    -0.490383  

	Virtual:                                                              

	   4A1     0.178011     2B2     0.249490     3B2     0.760274  
	   5A1     0.816118     6A1     1.166182     2B1     1.198611  
	   4B2     1.256467     7A1     1.452518     1A2     1.466082  
	   3B1     1.667951     8A1     1.877148     5B2     1.889827  
	   6B2     2.354901     9A1     2.388286     4B1     3.248786  
	   2A2     3.297834    10A1     3.453879    11A1     3.821364  
	   7B2     4.099041  

	Final Occupation by Irrep:
	         A1    A2    B1    B2 
	DOCC [     3,    0,    1,    1 ]

  Energy converged.

  @RHF Final Energy:   -76.02141844515491

   => Energetics <=

    Nuclear Repulsion Energy =          8.8014655299720665
    One-Electron Energy =            -122.4453516294463782
    Two-Electron Energy =              37.6224676543194008
    DFT Functional Energy =             0.0000000000000000
    Empirical Dispersion Energy =       0.0000000000000000
    Total Energy =                    -76.0214184451549215

  ==> Properties <==

  Nuclear Dipole Moment: (a.u.)
     X:     0.0000      Y:     0.0000      Z:     1.0191

  Electronic Dipole Moment: (a.u.)
     X:     0.0000      Y:     0.0000      Z:    -0.1947

  Dipole Moment: (a.u.)
     X:     0.0000      Y:     0.0000      Z:     0.8244     Total:     0.8244

  Dipole Moment: (Debye)
     X:     0.0000      Y:     0.0000      Z:     2.0955     Total:     2.0955


  Saving occupied orbitals to File 180.

*** tstop() called on lawn-143-215-103-161.lawn.gatech.edu at Fri Apr 27 13:52:37 2012
Module time:
	user time   =       0.07 seconds =       0.00 minutes
	system time =       0.00 seconds =       0.00 minutes
	total time  =          0 seconds =       0.00 minutes
Total time:
	user time   =       0.62 seconds =       0.01 minutes
	system time =       0.07 seconds =       0.00 minutes
	total time  =          1 seconds =       0.02 minutes

-------------------------------------------------------------

  Computing gradient from energies (fd_1_0).
	Using 3-point formula.
	Energy without displacement:  -76.0214184452
	Check energies below for precision!
	Forces are for mass-weighted, symmetry-adapted cartesians (in au).

	 Coord      Energy(-)        Energy(+)        Force
	    0    -76.0211928091   -76.0216381541    -0.0445344971
	    1    -76.0211110926   -76.0217174685    -0.0606375971

	Gradient written to file11.
	Gradient saved to wavefunction.

-------------------------------------------------------------

-------------------------------------------------------------

  Using finite-differences of energies to determine gradients (fd_geoms_1_0).
	Generating geometries for use with 5-point formula.
	Displacement size will be 5.00e-03.
	Number of atoms is 3.
	Number of symmetric SALC's is 2.
	Number of displacements (including reference) is 9.

-------------------------------------------------------------

  //>>>>>>>>>>>>>>>>>>>>>>>>>>>>>>>>>>>//
  //    Loading displacement 1 of 9    //
  //<<<<<<<<<<<<<<<<<<<<<<<<<<<<<<<<<<<//

*** tstart() called on lawn-143-215-103-161.lawn.gatech.edu
*** at Fri Apr 27 13:52:37 2012


         ---------------------------------------------------------
                                   SCF
            by Justin Turney, Rob Parrish, and Andy Simmonett
                              RHF Reference
                        1 Threads,    256 MiB Core
         ---------------------------------------------------------

  ==> Geometry <==

    Molecular point group: c2v

    Geometry (in Angstrom), charge = 0, multiplicity = 1:

       Center              X                  Y                   Z       
    ------------   -----------------  -----------------  -----------------
           O          0.000000000000     0.000000000000    -0.068958862790
           H          0.000000000000    -0.790689573744     0.547213597348
           H          0.000000000000     0.790689573744     0.547213597348

  Running in c2v symmetry.

  Nuclear repulsion =    8.780972104331346

  Charge       = 0
  Multiplicity = 1
  Electrons    = 10
  Nalpha       = 5
  Nbeta        = 5

  ==> Algorithm <==

  SCF Algorithm Type is PK.
  DIIS enabled.
  MOM disabled.
  Fractional occupation disabled.
  Guess Type is CORE.
  Energy threshold   = 1.00e-08
  Density threshold  = 1.00e-08
  Integral threshold = 0.00e+00

  ==> Primary Basis <==

  Basis Set: CC-PVDZ
    Number of shells: 12
    Number of basis function: 24
    Number of Cartesian functions: 25
    Spherical Harmonics?: true
    Max angular momentum: 2

  ==> Pre-Iterations <==

  Minimum eigenvalue in the overlap matrix is 3.7506437548E-02.
  Using Symmetric Orthogonalization.
  SCF Guess: Core (One-Electron) Hamiltonian.

  Initial RHF energy:   -58.69550321333960

   -------------------------------------------------------
    Irrep   Nso     Nmo     Nalpha   Nbeta   Ndocc  Nsocc
   -------------------------------------------------------
     A1        11      11       3       3       3       0
     A2         2       2       0       0       0       0
     B1         4       4       1       1       1       0
     B2         7       7       1       1       1       0
   -------------------------------------------------------
    Total      24      24       5       5       5       0
   -------------------------------------------------------

  ==> Integral Setup <==

 MINTS: Wrapper to libmints.
   by Justin Turney

   Calculation information:
      Number of atoms:                   3
      Number of AO shells:              12
      Number of SO shells:               9
      Number of primitives:             32
      Number of atomic orbitals:        25
      Number of basis functions:        24

      Number of irreps:                  4
      Number of functions per irrep: [  11    2    4    7 ]

      Overlap, kinetic, potential, dipole, and quadrupole integrals
        stored in file 35.

      Computing two-electron integrals...done
      Computed 11412 non-zero two-electron integrals.
        Stored in file 33.

  ==> Iterations <==

                        Total Energy        Delta E     Density RMS

   @RHF iter   1:   -68.92500125111786   -1.02295e+01   0.00000e+00 
	Occupation by irrep:
	         A1    A2    B1    B2 
	DOCC [     3,    0,    0,    2 ]

   @RHF iter   2:   -69.86703945622651   -9.42038e-01   5.29101e-01 DIIS
	Occupation by irrep:
	         A1    A2    B1    B2 
	DOCC [     3,    0,    1,    1 ]

   @RHF iter   3:   -75.76630312959671   -5.89926e+00   4.95950e-01 DIIS
   @RHF iter   4:   -75.99877953833266   -2.32476e-01   1.66608e-02 DIIS
   @RHF iter   5:   -76.02063863043374   -2.18591e-02   7.80164e-03 DIIS
   @RHF iter   6:   -76.02090945670055   -2.70826e-04   1.38108e-03 DIIS
   @RHF iter   7:   -76.02095925516366   -4.97985e-05   4.91223e-04 DIIS
   @RHF iter   8:   -76.02096115955102   -1.90439e-06   1.11942e-04 DIIS
   @RHF iter   9:   -76.02096126601938   -1.06468e-07   1.80495e-05 DIIS
   @RHF iter  10:   -76.02096126713181   -1.11243e-09   2.93780e-06 DIIS
   @RHF iter  11:   -76.02096126721445   -8.26361e-11   6.21659e-07 DIIS
   @RHF iter  12:   -76.02096126721685   -2.40163e-12   8.50880e-08 DIIS
   @RHF iter  13:   -76.02096126721686   -1.42109e-14   1.56811e-08 DIIS

  ==> Post-Iterations <==

	Orbital Energies (a.u.)
	-----------------------

	Doubly Occupied:                                                      

	   1A1   -20.558472     2A1    -1.315355     1B2    -0.675239  
	   3A1    -0.559000     1B1    -0.490386  

	Virtual:                                                              

	   4A1     0.177516     2B2     0.249087     3B2     0.757590  
	   5A1     0.815582     6A1     1.166543     2B1     1.198317  
	   4B2     1.257097     7A1     1.449788     1A2     1.466649  
	   3B1     1.665849     8A1     1.876983     5B2     1.889293  
	   6B2     2.348754     9A1     2.383327     4B1     3.248406  
	   2A2     3.294312    10A1     3.452142    11A1     3.816530  
	   7B2     4.098112  

	Final Occupation by Irrep:
	         A1    A2    B1    B2 
	DOCC [     3,    0,    1,    1 ]

  Energy converged.

  @RHF Final Energy:   -76.02096126721686

   => Energetics <=

    Nuclear Repulsion Energy =          8.7809721043313456
    One-Electron Energy =            -122.4069608722052749
    Two-Electron Energy =              37.6050275006570729
    DFT Functional Energy =             0.0000000000000000
    Empirical Dispersion Energy =       0.0000000000000000
    Total Energy =                    -76.0209612672168618

  ==> Properties <==

  Nuclear Dipole Moment: (a.u.)
     X:     0.0000      Y:     0.0000      Z:     1.0257

  Electronic Dipole Moment: (a.u.)
     X:     0.0000      Y:     0.0000      Z:    -0.1982

  Dipole Moment: (a.u.)
     X:     0.0000      Y:     0.0000      Z:     0.8274     Total:     0.8274

  Dipole Moment: (Debye)
     X:     0.0000      Y:     0.0000      Z:     2.1031     Total:     2.1031


  Saving occupied orbitals to File 180.

*** tstop() called on lawn-143-215-103-161.lawn.gatech.edu at Fri Apr 27 13:52:37 2012
Module time:
	user time   =       0.08 seconds =       0.00 minutes
	system time =       0.01 seconds =       0.00 minutes
	total time  =          0 seconds =       0.00 minutes
Total time:
	user time   =       0.70 seconds =       0.01 minutes
	system time =       0.08 seconds =       0.00 minutes
	total time  =          1 seconds =       0.02 minutes

  //>>>>>>>>>>>>>>>>>>>>>>>>>>>>>>>>>>>//
  //    Loading displacement 2 of 9    //
  //<<<<<<<<<<<<<<<<<<<<<<<<<<<<<<<<<<<//

*** tstart() called on lawn-143-215-103-161.lawn.gatech.edu
*** at Fri Apr 27 13:52:37 2012


         ---------------------------------------------------------
                                   SCF
            by Justin Turney, Rob Parrish, and Andy Simmonett
                              RHF Reference
                        1 Threads,    256 MiB Core
         ---------------------------------------------------------

  ==> Geometry <==

    Molecular point group: c2v

    Geometry (in Angstrom), charge = 0, multiplicity = 1:

       Center              X                  Y                   Z       
    ------------   -----------------  -----------------  -----------------
           O          0.000000000000     0.000000000000    -0.068737541050
           H          0.000000000000    -0.790689573744     0.545457329036
           H          0.000000000000     0.790689573744     0.545457329036

  Running in c2v symmetry.

  Nuclear repulsion =    8.791216689717066

  Charge       = 0
  Multiplicity = 1
  Electrons    = 10
  Nalpha       = 5
  Nbeta        = 5

  ==> Algorithm <==

  SCF Algorithm Type is PK.
  DIIS enabled.
  MOM disabled.
  Fractional occupation disabled.
  Guess Type is CORE.
  Energy threshold   = 1.00e-08
  Density threshold  = 1.00e-08
  Integral threshold = 0.00e+00

  ==> Primary Basis <==

  Basis Set: CC-PVDZ
    Number of shells: 12
    Number of basis function: 24
    Number of Cartesian functions: 25
    Spherical Harmonics?: true
    Max angular momentum: 2

  ==> Pre-Iterations <==

  Minimum eigenvalue in the overlap matrix is 3.7444245165E-02.
  Using Symmetric Orthogonalization.
  SCF Guess: Core (One-Electron) Hamiltonian.

  Initial RHF energy:   -58.69232549065362

   -------------------------------------------------------
    Irrep   Nso     Nmo     Nalpha   Nbeta   Ndocc  Nsocc
   -------------------------------------------------------
     A1        11      11       3       3       3       0
     A2         2       2       0       0       0       0
     B1         4       4       1       1       1       0
     B2         7       7       1       1       1       0
   -------------------------------------------------------
    Total      24      24       5       5       5       0
   -------------------------------------------------------

  ==> Integral Setup <==

 MINTS: Wrapper to libmints.
   by Justin Turney

   Calculation information:
      Number of atoms:                   3
      Number of AO shells:              12
      Number of SO shells:               9
      Number of primitives:             32
      Number of atomic orbitals:        25
      Number of basis functions:        24

      Number of irreps:                  4
      Number of functions per irrep: [  11    2    4    7 ]

      Overlap, kinetic, potential, dipole, and quadrupole integrals
        stored in file 35.

      Computing two-electron integrals...done
      Computed 11412 non-zero two-electron integrals.
        Stored in file 33.

  ==> Iterations <==

                        Total Energy        Delta E     Density RMS

   @RHF iter   1:   -68.92423056204807   -1.02319e+01   0.00000e+00 
	Occupation by irrep:
	         A1    A2    B1    B2 
	DOCC [     3,    0,    0,    2 ]

   @RHF iter   2:   -69.87270174495850   -9.48471e-01   5.29408e-01 DIIS
	Occupation by irrep:
	         A1    A2    B1    B2 
	DOCC [     3,    0,    1,    1 ]

   @RHF iter   3:   -75.76568417094970   -5.89298e+00   4.96256e-01 DIIS
   @RHF iter   4:   -75.99893807411927   -2.33254e-01   1.66859e-02 DIIS
   @RHF iter   5:   -76.02087169249990   -2.19336e-02   7.81165e-03 DIIS
   @RHF iter   6:   -76.02114132760187   -2.69635e-04   1.37655e-03 DIIS
   @RHF iter   7:   -76.02119080392390   -4.94763e-05   4.90199e-04 DIIS
   @RHF iter   8:   -76.02119270201894   -1.89810e-06   1.11785e-04 DIIS
   @RHF iter   9:   -76.02119280793131   -1.05912e-07   1.80527e-05 DIIS
   @RHF iter  10:   -76.02119280904421   -1.11289e-09   2.93999e-06 DIIS
   @RHF iter  11:   -76.02119280912632   -8.21103e-11   6.20014e-07 DIIS
   @RHF iter  12:   -76.02119280912868   -2.35900e-12   8.43113e-08 DIIS
   @RHF iter  13:   -76.02119280912873   -5.68434e-14   1.55978e-08 DIIS

  ==> Post-Iterations <==

	Orbital Energies (a.u.)
	-----------------------

	Doubly Occupied:                                                      

	   1A1   -20.558159     2A1    -1.315768     1B2    -0.676156  
	   3A1    -0.558864     1B1    -0.490384  

	Virtual:                                                              

	   4A1     0.177764     2B2     0.249289     3B2     0.758928  
	   5A1     0.815853     6A1     1.166362     2B1     1.198465  
	   4B2     1.256781     7A1     1.451154     1A2     1.466365  
	   3B1     1.666897     8A1     1.877064     5B2     1.889562  
	   6B2     2.351821     9A1     2.385806     4B1     3.248601  
	   2A2     3.296070    10A1     3.453030    11A1     3.818928  
	   7B2     4.098586  

	Final Occupation by Irrep:
	         A1    A2    B1    B2 
	DOCC [     3,    0,    1,    1 ]

  Energy converged.

  @RHF Final Energy:   -76.02119280912873

   => Energetics <=

    Nuclear Repulsion Energy =          8.7912166897170660
    One-Electron Energy =            -122.4261582065422402
    Two-Electron Energy =              37.6137487076964518
    DFT Functional Energy =             0.0000000000000000
    Empirical Dispersion Energy =       0.0000000000000000
    Total Energy =                    -76.0211928091287348

  ==> Properties <==

  Nuclear Dipole Moment: (a.u.)
     X:     0.0000      Y:     0.0000      Z:     1.0224

  Electronic Dipole Moment: (a.u.)
     X:     0.0000      Y:     0.0000      Z:    -0.1964

  Dipole Moment: (a.u.)
     X:     0.0000      Y:     0.0000      Z:     0.8259     Total:     0.8259

  Dipole Moment: (Debye)
     X:     0.0000      Y:     0.0000      Z:     2.0993     Total:     2.0993


  Saving occupied orbitals to File 180.

*** tstop() called on lawn-143-215-103-161.lawn.gatech.edu at Fri Apr 27 13:52:37 2012
Module time:
	user time   =       0.08 seconds =       0.00 minutes
	system time =       0.01 seconds =       0.00 minutes
	total time  =          0 seconds =       0.00 minutes
Total time:
	user time   =       0.78 seconds =       0.01 minutes
	system time =       0.09 seconds =       0.00 minutes
	total time  =          1 seconds =       0.02 minutes

  //>>>>>>>>>>>>>>>>>>>>>>>>>>>>>>>>>>>//
  //    Loading displacement 3 of 9    //
  //<<<<<<<<<<<<<<<<<<<<<<<<<<<<<<<<<<<//

*** tstart() called on lawn-143-215-103-161.lawn.gatech.edu
*** at Fri Apr 27 13:52:37 2012


         ---------------------------------------------------------
                                   SCF
            by Justin Turney, Rob Parrish, and Andy Simmonett
                              RHF Reference
                        1 Threads,    256 MiB Core
         ---------------------------------------------------------

  ==> Geometry <==

    Molecular point group: c2v

    Geometry (in Angstrom), charge = 0, multiplicity = 1:

       Center              X                  Y                   Z       
    ------------   -----------------  -----------------  -----------------
           O          0.000000000000     0.000000000000    -0.068294897570
           H          0.000000000000    -0.790689573744     0.541944792413
           H          0.000000000000     0.790689573744     0.541944792413

  Running in c2v symmetry.

  Nuclear repulsion =    8.811718490323452

  Charge       = 0
  Multiplicity = 1
  Electrons    = 10
  Nalpha       = 5
  Nbeta        = 5

  ==> Algorithm <==

  SCF Algorithm Type is PK.
  DIIS enabled.
  MOM disabled.
  Fractional occupation disabled.
  Guess Type is CORE.
  Energy threshold   = 1.00e-08
  Density threshold  = 1.00e-08
  Integral threshold = 0.00e+00

  ==> Primary Basis <==

  Basis Set: CC-PVDZ
    Number of shells: 12
    Number of basis function: 24
    Number of Cartesian functions: 25
    Spherical Harmonics?: true
    Max angular momentum: 2

  ==> Pre-Iterations <==

  Minimum eigenvalue in the overlap matrix is 3.7321016136E-02.
  Using Symmetric Orthogonalization.
  SCF Guess: Core (One-Electron) Hamiltonian.

  Initial RHF energy:   -58.68596795352065

   -------------------------------------------------------
    Irrep   Nso     Nmo     Nalpha   Nbeta   Ndocc  Nsocc
   -------------------------------------------------------
     A1        11      11       3       3       3       0
     A2         2       2       0       0       0       0
     B1         4       4       1       1       1       0
     B2         7       7       1       1       1       0
   -------------------------------------------------------
    Total      24      24       5       5       5       0
   -------------------------------------------------------

  ==> Integral Setup <==

 MINTS: Wrapper to libmints.
   by Justin Turney

   Calculation information:
      Number of atoms:                   3
      Number of AO shells:              12
      Number of SO shells:               9
      Number of primitives:             32
      Number of atomic orbitals:        25
      Number of basis functions:        24

      Number of irreps:                  4
      Number of functions per irrep: [  11    2    4    7 ]

      Overlap, kinetic, potential, dipole, and quadrupole integrals
        stored in file 35.

      Computing two-electron integrals...done
      Computed 11412 non-zero two-electron integrals.
        Stored in file 33.

  ==> Iterations <==

                        Total Energy        Delta E     Density RMS

   @RHF iter   1:   -68.92266791226395   -1.02367e+01   0.00000e+00 
	Occupation by irrep:
	         A1    A2    B1    B2 
	DOCC [     3,    0,    0,    2 ]

   @RHF iter   2:   -69.88392222926446   -9.61254e-01   5.30024e-01 DIIS
	Occupation by irrep:
	         A1    A2    B1    B2 
	DOCC [     3,    0,    1,    1 ]

   @RHF iter   3:   -75.76442120050100   -5.88050e+00   4.96873e-01 DIIS
   @RHF iter   4:   -75.99923696879223   -2.34816e-01   1.67366e-02 DIIS
   @RHF iter   5:   -76.02132003931499   -2.20831e-02   7.83176e-03 DIIS
   @RHF iter   6:   -76.02158732461174   -2.67285e-04   1.36747e-03 DIIS
   @RHF iter   7:   -76.02163616272045   -4.88381e-05   4.88136e-04 DIIS
   @RHF iter   8:   -76.02163804808353   -1.88536e-06   1.11466e-04 DIIS
   @RHF iter   9:   -76.02163815290253   -1.04819e-07   1.80616e-05 DIIS
   @RHF iter  10:   -76.02163815401646   -1.11393e-09   2.94496e-06 DIIS
   @RHF iter  11:   -76.02163815409772   -8.12577e-11   6.16698e-07 DIIS
   @RHF iter  12:   -76.02163815409995   -2.23110e-12   8.27908e-08 DIIS
   @RHF iter  13:   -76.02163815409999   -4.26326e-14   1.54318e-08 DIIS

  ==> Post-Iterations <==

	Orbital Energies (a.u.)
	-----------------------

	Doubly Occupied:                                                      

	   1A1   -20.557533     2A1    -1.316593     1B2    -0.677992  
	   3A1    -0.558587     1B1    -0.490381  

	Virtual:                                                              

	   4A1     0.178258     2B2     0.249688     3B2     0.761628  
	   5A1     0.816377     6A1     1.166005     2B1     1.198754  
	   4B2     1.256155     7A1     1.453883     1A2     1.465798  
	   3B1     1.669011     8A1     1.877238     5B2     1.890087  
	   6B2     2.357996     9A1     2.390768     4B1     3.248959  
	   2A2     3.299601    10A1     3.454690    11A1     3.823838  
	   7B2     4.099477  

	Final Occupation by Irrep:
	         A1    A2    B1    B2 
	DOCC [     3,    0,    1,    1 ]

  Energy converged.

  @RHF Final Energy:   -76.02163815409999

   => Energetics <=

    Nuclear Repulsion Energy =          8.8117184903234520
    One-Electron Energy =            -122.4645408685231445
    Two-Electron Energy =              37.6311842240997123
    DFT Functional Energy =             0.0000000000000000
    Empirical Dispersion Energy =       0.0000000000000000
    Total Energy =                    -76.0216381540999748

  ==> Properties <==

  Nuclear Dipole Moment: (a.u.)
     X:     0.0000      Y:     0.0000      Z:     1.0158

  Electronic Dipole Moment: (a.u.)
     X:     0.0000      Y:     0.0000      Z:    -0.1929

  Dipole Moment: (a.u.)
     X:     0.0000      Y:     0.0000      Z:     0.8229     Total:     0.8229

  Dipole Moment: (Debye)
     X:     0.0000      Y:     0.0000      Z:     2.0916     Total:     2.0916


  Saving occupied orbitals to File 180.

*** tstop() called on lawn-143-215-103-161.lawn.gatech.edu at Fri Apr 27 13:52:37 2012
Module time:
	user time   =       0.08 seconds =       0.00 minutes
	system time =       0.01 seconds =       0.00 minutes
	total time  =          0 seconds =       0.00 minutes
Total time:
	user time   =       0.86 seconds =       0.01 minutes
	system time =       0.10 seconds =       0.00 minutes
	total time  =          1 seconds =       0.02 minutes

  //>>>>>>>>>>>>>>>>>>>>>>>>>>>>>>>>>>>//
  //    Loading displacement 4 of 9    //
  //<<<<<<<<<<<<<<<<<<<<<<<<<<<<<<<<<<<//

*** tstart() called on lawn-143-215-103-161.lawn.gatech.edu
*** at Fri Apr 27 13:52:37 2012


         ---------------------------------------------------------
                                   SCF
            by Justin Turney, Rob Parrish, and Andy Simmonett
                              RHF Reference
                        1 Threads,    256 MiB Core
         ---------------------------------------------------------

  ==> Geometry <==

    Molecular point group: c2v

    Geometry (in Angstrom), charge = 0, multiplicity = 1:

       Center              X                  Y                   Z       
    ------------   -----------------  -----------------  -----------------
           O          0.000000000000     0.000000000000    -0.068073575830
           H          0.000000000000    -0.790689573744     0.540188524101
           H          0.000000000000     0.790689573744     0.540188524101

  Running in c2v symmetry.

  Nuclear repulsion =    8.821975434705646

  Charge       = 0
  Multiplicity = 1
  Electrons    = 10
  Nalpha       = 5
  Nbeta        = 5

  ==> Algorithm <==

  SCF Algorithm Type is PK.
  DIIS enabled.
  MOM disabled.
  Fractional occupation disabled.
  Guess Type is CORE.
  Energy threshold   = 1.00e-08
  Density threshold  = 1.00e-08
  Integral threshold = 0.00e+00

  ==> Primary Basis <==

  Basis Set: CC-PVDZ
    Number of shells: 12
    Number of basis function: 24
    Number of Cartesian functions: 25
    Spherical Harmonics?: true
    Max angular momentum: 2

  ==> Pre-Iterations <==

  Minimum eigenvalue in the overlap matrix is 3.7259970573E-02.
  Using Symmetric Orthogonalization.
  SCF Guess: Core (One-Electron) Hamiltonian.

  Initial RHF energy:   -58.68278813981064

   -------------------------------------------------------
    Irrep   Nso     Nmo     Nalpha   Nbeta   Ndocc  Nsocc
   -------------------------------------------------------
     A1        11      11       3       3       3       0
     A2         2       2       0       0       0       0
     B1         4       4       1       1       1       0
     B2         7       7       1       1       1       0
   -------------------------------------------------------
    Total      24      24       5       5       5       0
   -------------------------------------------------------

  ==> Integral Setup <==

 MINTS: Wrapper to libmints.
   by Justin Turney

   Calculation information:
      Number of atoms:                   3
      Number of AO shells:              12
      Number of SO shells:               9
      Number of primitives:             32
      Number of atomic orbitals:        25
      Number of basis functions:        24

      Number of irreps:                  4
      Number of functions per irrep: [  11    2    4    7 ]

      Overlap, kinetic, potential, dipole, and quadrupole integrals
        stored in file 35.

      Computing two-electron integrals...done
      Computed 11412 non-zero two-electron integrals.
        Stored in file 33.

  ==> Iterations <==

                        Total Energy        Delta E     Density RMS

   @RHF iter   1:   -68.92187624450511   -1.02391e+01   0.00000e+00 
	Occupation by irrep:
	         A1    A2    B1    B2 
	DOCC [     3,    0,    0,    2 ]

   @RHF iter   2:   -69.88948076918452   -9.67605e-01   5.30334e-01 DIIS
	Occupation by irrep:
	         A1    A2    B1    B2 
	DOCC [     3,    0,    1,    1 ]

   @RHF iter   3:   -75.76377733347563   -5.87430e+00   4.97184e-01 DIIS
   @RHF iter   4:   -75.99937730490683   -2.35600e-01   1.67621e-02 DIIS
   @RHF iter   5:   -76.02153528153397   -2.21580e-02   7.84187e-03 DIIS
   @RHF iter   6:   -76.02180140865403   -2.66127e-04   1.36294e-03 DIIS
   @RHF iter   7:   -76.02184993065144   -4.85220e-05   4.87097e-04 DIIS
   @RHF iter   8:   -76.02185180957333   -1.87892e-06   1.11305e-04 DIIS
   @RHF iter   9:   -76.02185191385475   -1.04281e-07   1.80672e-05 DIIS
   @RHF iter  10:   -76.02185191496929   -1.11454e-09   2.94773e-06 DIIS
   @RHF iter  11:   -76.02185191505004   -8.07461e-11   6.15024e-07 DIIS
   @RHF iter  12:   -76.02185191505232   -2.28795e-12   8.20465e-08 DIIS
   @RHF iter  13:   -76.02185191505237   -4.26326e-14   1.53490e-08 DIIS

  ==> Post-Iterations <==

	Orbital Energies (a.u.)
	-----------------------

	Doubly Occupied:                                                      

	   1A1   -20.557220     2A1    -1.317006     1B2    -0.678913  
	   3A1    -0.558446     1B1    -0.490380  

	Virtual:                                                              

	   4A1     0.178503     2B2     0.249884     3B2     0.762989  
	   5A1     0.816631     6A1     1.165829     2B1     1.198895  
	   4B2     1.255844     7A1     1.455246     1A2     1.465514  
	   3B1     1.670077     8A1     1.877331     5B2     1.890342  
	   6B2     2.361104     9A1     2.393249     4B1     3.249123  
	   2A2     3.301374    10A1     3.455461    11A1     3.826350  
	   7B2     4.099894  

	Final Occupation by Irrep:
	         A1    A2    B1    B2 
	DOCC [     3,    0,    1,    1 ]

  Energy converged.

  @RHF Final Energy:   -76.02185191505237

   => Energetics <=

    Nuclear Repulsion Energy =          8.8219754347056458
    One-Electron Energy =            -122.4837256496559093
    Two-Electron Energy =              37.6398982998978937
    DFT Functional Energy =             0.0000000000000000
    Empirical Dispersion Energy =       0.0000000000000000
    Total Energy =                    -76.0218519150523662

  ==> Properties <==

  Nuclear Dipole Moment: (a.u.)
     X:     0.0000      Y:     0.0000      Z:     1.0125

  Electronic Dipole Moment: (a.u.)
     X:     0.0000      Y:     0.0000      Z:    -0.1911

  Dipole Moment: (a.u.)
     X:     0.0000      Y:     0.0000      Z:     0.8214     Total:     0.8214

  Dipole Moment: (Debye)
     X:     0.0000      Y:     0.0000      Z:     2.0878     Total:     2.0878


  Saving occupied orbitals to File 180.

*** tstop() called on lawn-143-215-103-161.lawn.gatech.edu at Fri Apr 27 13:52:37 2012
Module time:
	user time   =       0.08 seconds =       0.00 minutes
	system time =       0.01 seconds =       0.00 minutes
	total time  =          0 seconds =       0.00 minutes
Total time:
	user time   =       0.94 seconds =       0.02 minutes
	system time =       0.11 seconds =       0.00 minutes
	total time  =          1 seconds =       0.02 minutes

  //>>>>>>>>>>>>>>>>>>>>>>>>>>>>>>>>>>>//
  //    Loading displacement 5 of 9    //
  //<<<<<<<<<<<<<<<<<<<<<<<<<<<<<<<<<<<//

*** tstart() called on lawn-143-215-103-161.lawn.gatech.edu
*** at Fri Apr 27 13:52:37 2012


         ---------------------------------------------------------
                                   SCF
            by Justin Turney, Rob Parrish, and Andy Simmonett
                              RHF Reference
                        1 Threads,    256 MiB Core
         ---------------------------------------------------------

  ==> Geometry <==

    Molecular point group: c2v

    Geometry (in Angstrom), charge = 0, multiplicity = 1:

       Center              X                  Y                   Z       
    ------------   -----------------  -----------------  -----------------
           O          0.000000000000     0.000000000000    -0.068516219310
           H          0.000000000000    -0.794416866993     0.543701060724
           H          0.000000000000     0.794416866993     0.543701060724

  Running in c2v symmetry.

  Nuclear repulsion =    8.774994084360845

  Charge       = 0
  Multiplicity = 1
  Electrons    = 10
  Nalpha       = 5
  Nbeta        = 5

  ==> Algorithm <==

  SCF Algorithm Type is PK.
  DIIS enabled.
  MOM disabled.
  Fractional occupation disabled.
  Guess Type is CORE.
  Energy threshold   = 1.00e-08
  Density threshold  = 1.00e-08
  Integral threshold = 0.00e+00

  ==> Primary Basis <==

  Basis Set: CC-PVDZ
    Number of shells: 12
    Number of basis function: 24
    Number of Cartesian functions: 25
    Spherical Harmonics?: true
    Max angular momentum: 2

  ==> Pre-Iterations <==

  Minimum eigenvalue in the overlap matrix is 3.7665748849E-02.
  Using Symmetric Orthogonalization.
  SCF Guess: Core (One-Electron) Hamiltonian.

  Initial RHF energy:   -58.69813776656491

   -------------------------------------------------------
    Irrep   Nso     Nmo     Nalpha   Nbeta   Ndocc  Nsocc
   -------------------------------------------------------
     A1        11      11       3       3       3       0
     A2         2       2       0       0       0       0
     B1         4       4       1       1       1       0
     B2         7       7       1       1       1       0
   -------------------------------------------------------
    Total      24      24       5       5       5       0
   -------------------------------------------------------

  ==> Integral Setup <==

 MINTS: Wrapper to libmints.
   by Justin Turney

   Calculation information:
      Number of atoms:                   3
      Number of AO shells:              12
      Number of SO shells:               9
      Number of primitives:             32
      Number of atomic orbitals:        25
      Number of basis functions:        24

      Number of irreps:                  4
      Number of functions per irrep: [  11    2    4    7 ]

      Overlap, kinetic, potential, dipole, and quadrupole integrals
        stored in file 35.

      Computing two-electron integrals...done
      Computed 11412 non-zero two-electron integrals.
        Stored in file 33.

  ==> Iterations <==

                        Total Energy        Delta E     Density RMS

   @RHF iter   1:   -68.92696219449967   -1.02288e+01   0.00000e+00 
	Occupation by irrep:
	         A1    A2    B1    B2 
	DOCC [     3,    0,    0,    2 ]

   @RHF iter   2:   -69.87767727046851   -9.50715e-01   5.27498e-01 DIIS
	Occupation by irrep:
	         A1    A2    B1    B2 
	DOCC [     3,    0,    1,    1 ]

   @RHF iter   3:   -75.76668274151284   -5.88901e+00   4.94257e-01 DIIS
   @RHF iter   4:   -75.99864667222512   -2.31964e-01   1.66303e-02 DIIS
   @RHF iter   5:   -76.02047368511154   -2.18270e-02   7.78503e-03 DIIS
   @RHF iter   6:   -76.02074370528705   -2.70020e-04   1.37394e-03 DIIS
   @RHF iter   7:   -76.02079346514783   -4.97599e-05   4.91012e-04 DIIS
   @RHF iter   8:   -76.02079537776982   -1.91262e-06   1.12314e-04 DIIS
   @RHF iter   9:   -76.02079548428266   -1.06513e-07   1.81412e-05 DIIS
   @RHF iter  10:   -76.02079548544711   -1.16445e-09   3.01256e-06 DIIS
   @RHF iter  11:   -76.02079548553294   -8.58336e-11   6.36566e-07 DIIS
   @RHF iter  12:   -76.02079548553543   -2.48690e-12   8.49557e-08 DIIS
   @RHF iter  13:   -76.02079548553540    2.84217e-14   1.56229e-08 DIIS

  ==> Post-Iterations <==

	Orbital Energies (a.u.)
	-----------------------

	Doubly Occupied:                                                      

	   1A1   -20.558192     2A1    -1.314661     1B2    -0.676043  
	   3A1    -0.557664     1B1    -0.490111  

	Virtual:                                                              

	   4A1     0.177494     2B2     0.248977     3B2     0.759244  
	   5A1     0.812534     6A1     1.166186     2B1     1.198480  
	   4B2     1.256424     7A1     1.455513     1A2     1.464661  
	   3B1     1.668906     8A1     1.878405     5B2     1.885504  
	   6B2     2.348964     9A1     2.381311     4B1     3.245098  
	   2A2     3.296006    10A1     3.448838    11A1     3.820234  
	   7B2     4.094353  

	Final Occupation by Irrep:
	         A1    A2    B1    B2 
	DOCC [     3,    0,    1,    1 ]

  Energy converged.

  @RHF Final Energy:   -76.02079548553540

   => Energetics <=

    Nuclear Repulsion Energy =          8.7749940843608449
    One-Electron Energy =            -122.3982385708187195
    Two-Electron Energy =              37.6024490009224621
    DFT Functional Energy =             0.0000000000000000
    Empirical Dispersion Energy =       0.0000000000000000
    Total Energy =                    -76.0207954855354160

  ==> Properties <==

  Nuclear Dipole Moment: (a.u.)
     X:     0.0000      Y:     0.0000      Z:     1.0191

  Electronic Dipole Moment: (a.u.)
     X:     0.0000      Y:     0.0000      Z:    -0.1953

  Dipole Moment: (a.u.)
     X:     0.0000      Y:     0.0000      Z:     0.8238     Total:     0.8238

  Dipole Moment: (Debye)
     X:     0.0000      Y:     0.0000      Z:     2.0939     Total:     2.0939


  Saving occupied orbitals to File 180.

*** tstop() called on lawn-143-215-103-161.lawn.gatech.edu at Fri Apr 27 13:52:38 2012
Module time:
	user time   =       0.08 seconds =       0.00 minutes
	system time =       0.01 seconds =       0.00 minutes
	total time  =          1 seconds =       0.02 minutes
Total time:
	user time   =       1.02 seconds =       0.02 minutes
	system time =       0.12 seconds =       0.00 minutes
	total time  =          2 seconds =       0.03 minutes

  //>>>>>>>>>>>>>>>>>>>>>>>>>>>>>>>>>>>//
  //    Loading displacement 6 of 9    //
  //<<<<<<<<<<<<<<<<<<<<<<<<<<<<<<<<<<<//

*** tstart() called on lawn-143-215-103-161.lawn.gatech.edu
*** at Fri Apr 27 13:52:38 2012


         ---------------------------------------------------------
                                   SCF
[...]
   @UHF iter   4:   -75.68924123890872   -1.61798e-01   1.67879e-02 DIIS
   @UHF iter   5:   -75.70307690862444   -1.38357e-02   6.57471e-03 DIIS
   @UHF iter   6:   -75.70339463065935   -3.17722e-04   8.16836e-04 DIIS
   @UHF iter   7:   -75.70345222974866   -5.75991e-05   5.41208e-04 DIIS
   @UHF iter   8:   -75.70345595958412   -3.72984e-06   1.31988e-04 DIIS
   @UHF iter   9:   -75.70345630930787   -3.49724e-07   4.73254e-05 DIIS
   @UHF iter  10:   -75.70345631620378   -6.89592e-09   4.05494e-06 DIIS
   @UHF iter  11:   -75.70345631743717   -1.23339e-09   8.49670e-07 DIIS
   @UHF iter  12:   -75.70345631762953   -1.92358e-10   3.98706e-07 DIIS
   @UHF iter  13:   -75.70345631763773   -8.19966e-12   2.57483e-07 DIIS
   @UHF iter  14:   -75.70345631763799   -2.55795e-13   5.79531e-08 DIIS

  ==> Post-Iterations <==

   @Spin Contamination Metric:   5.385680948E-03
   @S^2 Expected:                2.000000000E+00
   @S^2 Observed:                2.005385681E+00
   @S   Expected:                1.000000000E+00
   @S   Observed:                1.000000000E+00

	Orbital Energies (a.u.)
	-----------------------

	Alpha Occupied:                                                       

	   1A1   -20.748267     2A1    -1.541436     3A1    -0.855686  
	   1B2    -0.833305     1B1    -0.675303     4A1    -0.164590  

	Alpha Virtual:                                                        

	   2B2     0.153349     3B2     0.659769     5A1     0.698413  
	   6A1     0.973295     2B1     1.045285     4B2     1.128412  
	   7A1     1.328261     1A2     1.389926     3B1     1.575419  
	   8A1     1.734472     5B2     1.811038     6B2     2.237245  
	   9A1     2.270548     4B1     3.038158     2A2     3.138182  
	  10A1     3.233598    11A1     3.662147     7B2     3.904220  

	Beta Occupied:                                                        

	   1A1   -20.696182     2A1    -1.355658     1B2    -0.783693  
	   1B1    -0.610345  

	Beta Virtual:                                                         

	   3A1    -0.072062     4A1     0.190542     2B2     0.247433  
	   3B2     0.735412     5A1     0.809397     2B1     1.095053  
	   6A1     1.145019     4B2     1.163111     7A1     1.396997  
	   1A2     1.420419     3B1     1.625597     8A1     1.797261  
	   5B2     1.848948     6B2     2.297130     9A1     2.337576  
	   4B1     3.147421     2A2     3.164175    10A1     3.357269  
	  11A1     3.700566     7B2     3.987906  

	Final Occupation by Irrep:
	         A1    A2    B1    B2 
	DOCC [     2,    0,    1,    1 ]
	SOCC [     2,    0,    0,    0 ]

  Energy converged.

  @UHF Final Energy:   -75.70345631763799

   => Energetics <=

    Nuclear Repulsion Energy =          8.8147454299229135
    One-Electron Energy =            -120.7719380179458426
    Two-Electron Energy =              36.2537362703849411
    DFT Functional Energy =             0.0000000000000000
    Empirical Dispersion Energy =       0.0000000000000000
    Total Energy =                    -75.7034563176380004

  ==> Properties <==

  Nuclear Dipole Moment: (a.u.)
     X:     0.0000      Y:     0.0000      Z:     1.0191

  Electronic Dipole Moment: (a.u.)
     X:     0.0000      Y:     0.0000      Z:    -1.2932

  Dipole Moment: (a.u.)
     X:     0.0000      Y:     0.0000      Z:    -0.2741     Total:     0.2741

  Dipole Moment: (Debye)
     X:     0.0000      Y:     0.0000      Z:    -0.6967     Total:     0.6967


  Saving occupied orbitals to File 180.

*** tstop() called on lawn-143-215-103-161.lawn.gatech.edu at Fri Apr 27 13:52:41 2012
Module time:
	user time   =       0.08 seconds =       0.00 minutes
	system time =       0.01 seconds =       0.00 minutes
	total time  =          0 seconds =       0.00 minutes
Total time:
	user time   =       3.92 seconds =       0.07 minutes
	system time =       0.43 seconds =       0.01 minutes
	total time  =          5 seconds =       0.08 minutes

  //>>>>>>>>>>>>>>>>>>>>>>>>>>>>>>>>>>>//
  //    Loading displacement 8 of 9    //
  //<<<<<<<<<<<<<<<<<<<<<<<<<<<<<<<<<<<//

*** tstart() called on lawn-143-215-103-161.lawn.gatech.edu
*** at Fri Apr 27 13:52:41 2012


         ---------------------------------------------------------
                                   SCF
            by Justin Turney, Rob Parrish, and Andy Simmonett
                              UHF Reference
                        1 Threads,    256 MiB Core
         ---------------------------------------------------------

  ==> Geometry <==

    Molecular point group: c2v

    Geometry (in Angstrom), charge = 0, multiplicity = 3:

       Center              X                  Y                   Z       
    ------------   -----------------  -----------------  -----------------
           O          0.000000000000     0.000000000000    -0.068516219310
           H          0.000000000000    -0.786962280495     0.543701060724
           H          0.000000000000     0.786962280495     0.543701060724

  Running in c2v symmetry.

  Nuclear repulsion =    8.828054838056744

  Charge       = 0
  Multiplicity = 3
  Electrons    = 10
  Nalpha       = 6
  Nbeta        = 4

  ==> Algorithm <==

  SCF Algorithm Type is PK.
  DIIS enabled.
  MOM disabled.
  Fractional occupation disabled.
  Guess Type is CORE.
  Energy threshold   = 1.00e-08
  Density threshold  = 1.00e-08
  Integral threshold = 0.00e+00

  ==> Primary Basis <==

  Basis Set: CC-PVDZ
    Number of shells: 12
    Number of basis function: 24
    Number of Cartesian functions: 25
    Spherical Harmonics?: true
    Max angular momentum: 2

  ==> Pre-Iterations <==

  Minimum eigenvalue in the overlap matrix is 3.7103151927E-02.
  Using Symmetric Orthogonalization.
  SCF Guess: Core (One-Electron) Hamiltonian.

  Initial UHF energy:   -56.89698859363423

   -------------------------------------------------------
    Irrep   Nso     Nmo     Nalpha   Nbeta   Ndocc  Nsocc
   -------------------------------------------------------
     A1        11      11       3       2       2       1
     A2         2       2       0       0       0       0
     B1         4       4       1       1       1       0
     B2         7       7       2       1       1       1
   -------------------------------------------------------
    Total      24      24       6       4       4       2
   -------------------------------------------------------

  ==> Integral Setup <==

 MINTS: Wrapper to libmints.
   by Justin Turney

   Calculation information:
      Number of atoms:                   3
      Number of AO shells:              12
      Number of SO shells:               9
      Number of primitives:             32
      Number of atomic orbitals:        25
      Number of basis functions:        24

      Number of irreps:                  4
      Number of functions per irrep: [  11    2    4    7 ]

      Overlap, kinetic, potential, dipole, and quadrupole integrals
        stored in file 35.

      Computing two-electron integrals...done
      Computed 11412 non-zero two-electron integrals.
        Stored in file 33.

  ==> Iterations <==

                        Total Energy        Delta E     Density RMS

   @UHF iter   1:   -69.40433860031004   -1.25074e+01   0.00000e+00 
	Occupation by irrep:
	         A1    A2    B1    B2 
	DOCC [     3,    0,    0,    1 ]
	SOCC [     1,    0,    0,    1 ]

   @UHF iter   2:   -71.48719486502496   -2.08286e+00   4.06322e-01 DIIS
	Occupation by irrep:
	         A1    A2    B1    B2 
	DOCC [     2,    0,    1,    1 ]
	SOCC [     2,    0,    0,    0 ]

   @UHF iter   3:   -75.52670992048830   -4.03952e+00   3.39948e-01 DIIS
   @UHF iter   4:   -75.68858339759636   -1.61873e-01   1.68109e-02 DIIS
   @UHF iter   5:   -75.70241412456801   -1.38307e-02   6.58953e-03 DIIS
   @UHF iter   6:   -75.70273039760573   -3.16273e-04   8.11561e-04 DIIS
   @UHF iter   7:   -75.70278790023983   -5.75026e-05   5.38872e-04 DIIS
   @UHF iter   8:   -75.70279161615518   -3.71592e-06   1.31449e-04 DIIS
   @UHF iter   9:   -75.70279196164711   -3.45492e-07   4.68709e-05 DIIS
   @UHF iter  10:   -75.70279196810895   -6.46185e-09   3.96898e-06 DIIS
   @UHF iter  11:   -75.70279196918892   -1.07997e-09   8.02148e-07 DIIS
   @UHF iter  12:   -75.70279196936634   -1.77423e-10   3.74577e-07 DIIS
   @UHF iter  13:   -75.70279196937442   -8.07177e-12   2.50934e-07 DIIS
   @UHF iter  14:   -75.70279196937474   -3.26850e-13   5.71801e-08 DIIS

  ==> Post-Iterations <==

   @Spin Contamination Metric:   5.325201972E-03
   @S^2 Expected:                2.000000000E+00
   @S^2 Observed:                2.005325202E+00
   @S   Expected:                1.000000000E+00
   @S   Observed:                1.000000000E+00

	Orbital Energies (a.u.)
	-----------------------

	Alpha Occupied:                                                       

	   1A1   -20.748684     2A1    -1.542479     3A1    -0.856632  
	   1B2    -0.834247     1B1    -0.675855     4A1    -0.164121  

	Alpha Virtual:                                                        

	   2B2     0.153656     3B2     0.659988     5A1     0.699878  
	   6A1     0.973161     2B1     1.044974     4B2     1.128136  
	   7A1     1.326593     1A2     1.390441     3B1     1.574612  
	   8A1     1.733475     5B2     1.813052     6B2     2.239841  
	   9A1     2.273685     4B1     3.039722     2A2     3.138650  
	  10A1     3.235741    11A1     3.662200     7B2     3.906162  

	Beta Occupied:                                                        

	   1A1   -20.696576     2A1    -1.356781     1B2    -0.784602  
	   1B1    -0.610853  

	Beta Virtual:                                                         

	   3A1    -0.072668     4A1     0.190606     2B2     0.247677  
	   3B2     0.735563     5A1     0.810845     2B1     1.094753  
	   6A1     1.144530     4B2     1.162857     7A1     1.395328  
	   1A2     1.420783     3B1     1.624797     8A1     1.796299  
	   5B2     1.850848     6B2     2.299741     9A1     2.340667  
	   4B1     3.148857     2A2     3.164742    10A1     3.359195  
	  11A1     3.700878     7B2     3.989789  

	Final Occupation by Irrep:
	         A1    A2    B1    B2 
	DOCC [     2,    0,    1,    1 ]
	SOCC [     2,    0,    0,    0 ]

  Energy converged.

  @UHF Final Energy:   -75.70279196937474

   => Energetics <=

    Nuclear Repulsion Energy =          8.8280548380567438
    One-Electron Energy =            -120.7908632048983577
    Two-Electron Energy =              36.2600163974668561
    DFT Functional Energy =             0.0000000000000000
    Empirical Dispersion Energy =       0.0000000000000000
    Total Energy =                    -75.7027919693747577

  ==> Properties <==

  Nuclear Dipole Moment: (a.u.)
     X:     0.0000      Y:     0.0000      Z:     1.0191

  Electronic Dipole Moment: (a.u.)
     X:     0.0000      Y:     0.0000      Z:    -1.2963

  Dipole Moment: (a.u.)
     X:     0.0000      Y:     0.0000      Z:    -0.2773     Total:     0.2773

  Dipole Moment: (Debye)
     X:     0.0000      Y:     0.0000      Z:    -0.7048     Total:     0.7048


  Saving occupied orbitals to File 180.

*** tstop() called on lawn-143-215-103-161.lawn.gatech.edu at Fri Apr 27 13:52:41 2012
Module time:
	user time   =       0.08 seconds =       0.00 minutes
	system time =       0.01 seconds =       0.00 minutes
	total time  =          0 seconds =       0.00 minutes
Total time:
	user time   =       4.00 seconds =       0.07 minutes
	system time =       0.44 seconds =       0.01 minutes
	total time  =          5 seconds =       0.08 minutes

  //>>>>>>>>>>>>>>>>>>>>>>>>>>>>>>>>>>>//
  //    Loading displacement 9 of 9    //
  //<<<<<<<<<<<<<<<<<<<<<<<<<<<<<<<<<<<//

*** tstart() called on lawn-143-215-103-161.lawn.gatech.edu
*** at Fri Apr 27 13:52:41 2012


         ---------------------------------------------------------
                                   SCF
            by Justin Turney, Rob Parrish, and Andy Simmonett
                              UHF Reference
                        1 Threads,    256 MiB Core
         ---------------------------------------------------------

  ==> Geometry <==

    Molecular point group: c2v

    Geometry (in Angstrom), charge = 0, multiplicity = 3:

       Center              X                  Y                   Z       
    ------------   -----------------  -----------------  -----------------
           O          0.000000000000     0.000000000000    -0.068516219310
           H          0.000000000000    -0.790689573744     0.543701060724
           H          0.000000000000     0.790689573744     0.543701060724

  Running in c2v symmetry.

  Nuclear repulsion =    8.801465529972067

  Charge       = 0
  Multiplicity = 3
  Electrons    = 10
  Nalpha       = 6
  Nbeta        = 4

  ==> Algorithm <==

  SCF Algorithm Type is PK.
  DIIS enabled.
  MOM disabled.
  Fractional occupation disabled.
  Guess Type is CORE.
  Energy threshold   = 1.00e-08
  Density threshold  = 1.00e-08
  Integral threshold = 0.00e+00

  ==> Primary Basis <==

  Basis Set: CC-PVDZ
    Number of shells: 12
    Number of basis function: 24
    Number of Cartesian functions: 25
    Spherical Harmonics?: true
    Max angular momentum: 2

  ==> Pre-Iterations <==

  Minimum eigenvalue in the overlap matrix is 3.7382439507E-02.
  Using Symmetric Orthogonalization.
  SCF Guess: Core (One-Electron) Hamiltonian.

  Initial UHF energy:   -56.90445636533997

   -------------------------------------------------------
    Irrep   Nso     Nmo     Nalpha   Nbeta   Ndocc  Nsocc
   -------------------------------------------------------
     A1        11      11       3       2       2       1
     A2         2       2       0       0       0       0
     B1         4       4       1       1       1       0
     B2         7       7       2       1       1       1
   -------------------------------------------------------
    Total      24      24       6       4       4       2
   -------------------------------------------------------

  ==> Integral Setup <==

 MINTS: Wrapper to libmints.
   by Justin Turney

   Calculation information:
      Number of atoms:                   3
      Number of AO shells:              12
      Number of SO shells:               9
      Number of primitives:             32
      Number of atomic orbitals:        25
      Number of basis functions:        24

      Number of irreps:                  4
      Number of functions per irrep: [  11    2    4    7 ]

      Overlap, kinetic, potential, dipole, and quadrupole integrals
        stored in file 35.

      Computing two-electron integrals...done
      Computed 11412 non-zero two-electron integrals.
        Stored in file 33.

  ==> Iterations <==

                        Total Energy        Delta E     Density RMS

   @UHF iter   1:   -69.41030639026931   -1.25059e+01   0.00000e+00 
	Occupation by irrep:
	         A1    A2    B1    B2 
	DOCC [     3,    0,    0,    1 ]
	SOCC [     1,    0,    0,    1 ]

   @UHF iter   2:   -71.48994838478087   -2.07964e+00   4.04631e-01 DIIS
	Occupation by irrep:
	         A1    A2    B1    B2 
	DOCC [     2,    0,    1,    1 ]
	SOCC [     2,    0,    0,    0 ]

   @UHF iter   3:   -75.52816758346961   -4.03822e+00   3.38301e-01 DIIS
   @UHF iter   4:   -75.68989228416612   -1.61725e-01   1.67652e-02 DIIS
   @UHF iter   5:   -75.70373318176863   -1.38409e-02   6.56001e-03 DIIS
   @UHF iter   6:   -75.70405237908571   -3.19197e-04   8.22181e-04 DIIS
   @UHF iter   7:   -75.70411007926975   -5.77002e-05   5.43567e-04 DIIS
   @UHF iter   8:   -75.70411382385998   -3.74459e-06   1.32538e-04 DIIS
   @UHF iter   9:   -75.70411417809422   -3.54234e-07   4.77921e-05 DIIS
   @UHF iter  10:   -75.70411418547040   -7.37619e-09   4.14577e-06 DIIS
   @UHF iter  11:   -75.70411418687473   -1.40433e-09   9.03177e-07 DIIS
   @UHF iter  12:   -75.70411418708180   -2.07066e-10   4.23183e-07 DIIS
   @UHF iter  13:   -75.70411418708998   -8.18545e-12   2.63437e-07 DIIS
   @UHF iter  14:   -75.70411418709025   -2.70006e-13   5.87223e-08 DIIS

  ==> Post-Iterations <==

   @Spin Contamination Metric:   5.447537247E-03
   @S^2 Expected:                2.000000000E+00
   @S^2 Observed:                2.005447537E+00
   @S   Expected:                1.000000000E+00
   @S   Observed:                1.000000000E+00

	Orbital Energies (a.u.)
	-----------------------

	Alpha Occupied:                                                       

	   1A1   -20.747849     2A1    -1.540394     3A1    -0.854742  
	   1B2    -0.832362     1B1    -0.674751     4A1    -0.165062  

	Alpha Virtual:                                                        

	   2B2     0.153043     3B2     0.659552     5A1     0.696953  
	   6A1     0.973434     2B1     1.045596     4B2     1.128690  
	   7A1     1.329925     1A2     1.389418     3B1     1.576221  
	   8A1     1.735466     5B2     1.809038     6B2     2.234654  
	   9A1     2.267432     4B1     3.036602     2A2     3.137712  
	  10A1     3.231442    11A1     3.662096     7B2     3.902281  

	Beta Occupied:                                                        

	   1A1   -20.695789     2A1    -1.354539     1B2    -0.782782  
	   1B1    -0.609837  

	Beta Virtual:                                                         

	   3A1    -0.071458     4A1     0.190479     2B2     0.247190  
	   3B2     0.735264     5A1     0.807959     2B1     1.095351  
	   6A1     1.145508     4B2     1.163368     7A1     1.398661  
	   1A2     1.420063     3B1     1.626392     8A1     1.798223  
	   5B2     1.847062     6B2     2.294523     9A1     2.334502  
	   4B1     3.145992     2A2     3.163605    10A1     3.355328  
	  11A1     3.700258     7B2     3.986025  

	Final Occupation by Irrep:
	         A1    A2    B1    B2 
	DOCC [     2,    0,    1,    1 ]
	SOCC [     2,    0,    0,    0 ]

  Energy converged.

  @UHF Final Energy:   -75.70411418709025

   => Energetics <=

    Nuclear Repulsion Energy =          8.8014655299720665
    One-Electron Energy =            -120.7530526163462099
    Two-Electron Energy =              36.2474728992838990
    DFT Functional Energy =             0.0000000000000000
    Empirical Dispersion Energy =       0.0000000000000000
    Total Energy =                    -75.7041141870902550

  ==> Properties <==

  Nuclear Dipole Moment: (a.u.)
     X:     0.0000      Y:     0.0000      Z:     1.0191

  Electronic Dipole Moment: (a.u.)
     X:     0.0000      Y:     0.0000      Z:    -1.2900

  Dipole Moment: (a.u.)
     X:     0.0000      Y:     0.0000      Z:    -0.2709     Total:     0.2709

  Dipole Moment: (Debye)
     X:     0.0000      Y:     0.0000      Z:    -0.6887     Total:     0.6887


  Saving occupied orbitals to File 180.

*** tstop() called on lawn-143-215-103-161.lawn.gatech.edu at Fri Apr 27 13:52:41 2012
Module time:
	user time   =       0.08 seconds =       0.00 minutes
	system time =       0.01 seconds =       0.00 minutes
	total time  =          0 seconds =       0.00 minutes
Total time:
	user time   =       4.09 seconds =       0.07 minutes
	system time =       0.45 seconds =       0.01 minutes
	total time  =          5 seconds =       0.08 minutes

-------------------------------------------------------------

  Computing gradient from energies (fd_1_0).
	Using 5-point formula.
	Energy without displacement:  -75.7041141871
	Check energies below for precision!
	Forces are for mass-weighted, symmetry-adapted cartesians (in au).

	 Coord      Energy(-2)        Energy(-1)        Energy(+1)        Energy(+2)            Force
	    0    -75.7041589760    -75.7041379298    -75.7040877234    -75.7040585143      0.0050198353
	    1    -75.7054107782    -75.7047656501    -75.7034563176    -75.7027919694      0.1309308428

	Gradient written to file11.
	Gradient saved to wavefunction.

-------------------------------------------------------------

*** PSI4 exiting successfully. Buy a developer a beer!
