    -----------------------------------------------------------------------
          PSI4: An Open-Source Ab Initio Electronic Structure Package
                              PSI 4.0.0-beta1 Driver

               Git: Rev 8268e5ba0276eef671d5bc4a44cf66fa46407463

    J. M. Turney, A. C. Simmonett, R. M. Parrish, E. G. Hohenstein,
    F. A. Evangelista, J. T. Fermann, B. J. Mintz, L. A. Burns, J. J. Wilke,
    M. L. Abrams, N. J. Russ, M. L. Leininger, C. L. Janssen, E. T. Seidl,
    W. D. Allen, H. F. Schaefer, R. A. King, E. F. Valeev, C. D. Sherrill,
    and T. D. Crawford, WIREs Comput. Mol. Sci., (2011) (doi: 10.1002/wcms.93)

                         Additional Contributions by
    A. E. DePrince, M. Saitow, U. Bozkaya, A. Yu. Sokolov
    -----------------------------------------------------------------------


    Using LocalCommunicator (Number of processes = 1)

    Memory level set to 256.000 MB

  ==> Input File <==

--------------------------------------------------------------------------
#! Database calculation, so no molecule section in input file. Portions of the full
#! databases, restricted by subset keyword, are computed by sapt0 and dfmp2 methods.

memory 250 mb

refS22AmadSAPT0 = 2.105857433479                                                            #TEST
refS22BmadSAPT0 = 2.063857730160                                                            #TEST
refNBCmadDFMP2  = 0.117344794875                                                            #TEST
refNBCmadSCF    = 0.149827452337                                                            #TEST

set globals {
    BASIS sto-3g
    DF_BASIS_SCF  cc-pVDZ-JKFIT
    DF_BASIS_SAPT cc-pVDZ-RI
    DF_BASIS_MP2  cc-pVDZ-RI
    REFERENCE RHF
    SCF_TYPE DF
    PRINT 1
    R_CONVERGENCE 11
    JOBTYPE SP
    GUESS CORE
}

S22mad = database('sapt0','S22',subset=[2,8],BENCHMARK='S22A')
compare_values(refS22AmadSAPT0, S22mad, 5, "S22 with S22A subset mean absolute deviation")  #TEST
#S22mad = database('sapt0','S22',subset=[2,8])
#compare_values(refS22BmadSAPT0, S22mad, 5, "S22 with S22B subset mean absolute deviation")  #TEST
#NBCmad = database('df-mp2','NBC10',cp='on',symm='off',subset='small')  # Revive after df-mp2 regains independence from madness
#compare_values(refNBCmadDFMP2, NBCmad, 5, "NBC subset mean absolute deviation")             #TEST
NBCmad = database('scf','NBC10',cp='on',SYMM='OFF',subset='small')
compare_values(refNBCmadSCF, NBCmad, 5, "NBC subset mean absolute deviation")               #TEST
--------------------------------------------------------------------------

  Memory set to 250.000 MiB by Python script.


  //>>>>>>>>>>>>>>>>>>>>>>>>>>>>>>>>>>>//
  //      Database S22 Computation     //
  //<<<<<<<<<<<<<<<<<<<<<<<<<<<<<<<<<<<//


    The database single-job procedure has been selected through mode='continuous'.
    Calculations for the reagents will proceed in the order below and will be followed
    by summary results for the database.

                    S22-2-dimer
                    S22-8-dimer

    Alternatively, a farming-out of the database calculations may be accessed through
    the database wrapper option mode='sow'/'reap'.


  //>>>>>>>>>>>>>>>>>>>>>>>>>>>>>>>>>>>>>>>>>>>>>>>//
  // Database S22 Computation: Reagent S22-2-dimer //
  //                    Water Dimer                //
  //<<<<<<<<<<<<<<<<<<<<<<<<<<<<<<<<<<<<<<<<<<<<<<<//


  Memory set to 250.000 MiB by Python script.

  //>>>>>>>>>>>>>>>>>>>>>>>>>>>>>>>>>>>//
  //              Dimer HF             //
  //<<<<<<<<<<<<<<<<<<<<<<<<<<<<<<<<<<<//


*** tstart() called on lawn-143-215-103-161.lawn.gatech.edu
*** at Fri Apr 27 14:39:55 2012


         ---------------------------------------------------------
                                   SCF
            by Justin Turney, Rob Parrish, and Andy Simmonett
                              RHF Reference
                        1 Threads,    250 MiB Core
         ---------------------------------------------------------

  ==> Geometry <==

    Molecular point group: c1

    Geometry (in Angstrom), charge = 0, multiplicity = 1:

       Center              X                  Y                   Z       
    ------------   -----------------  -----------------  -----------------
           O         -1.485163346097    -0.114724564047     0.000000000000
           H         -1.868415346097     0.762298435953     0.000000000000
           H         -0.533833346097     0.040507435953     0.000000000000
           O          1.416468653903     0.111264435953     0.000000000000
           H          1.746241653903    -0.373945564047    -0.758561000000
           H          1.746241653903    -0.373945564047     0.758561000000

  Running in c1 symmetry.

  Nuclear repulsion =   36.662847852755299

  Charge       = 0
  Multiplicity = 1
  Electrons    = 20
  Nalpha       = 10
  Nbeta        = 10

  ==> Algorithm <==

  SCF Algorithm Type is DF.
  DIIS enabled.
  MOM disabled.
  Fractional occupation disabled.
  Guess Type is CORE.
  Energy threshold   = 1.00e-08
  Density threshold  = 1.00e-08
  Integral threshold = 0.00e+00

  ==> Primary Basis <==

  Basis Set: STO-3G
    Number of shells: 10
    Number of basis function: 14
    Number of Cartesian functions: 14
    Spherical Harmonics?: true
    Max angular momentum: 1

  ==> Pre-Iterations <==

  Minimum eigenvalue in the overlap matrix is 3.3873562909E-01.
  Using Symmetric Orthogonalization.
  SCF Guess: Core (One-Electron) Hamiltonian.

  Initial RHF energy:  -108.97606570230175

   -------------------------------------------------------
    Irrep   Nso     Nmo     Nalpha   Nbeta   Ndocc  Nsocc
   -------------------------------------------------------
     A         14      14      10      10      10       0
   -------------------------------------------------------
    Total      14      14      10      10      10       0
   -------------------------------------------------------

  ==> Integral Setup <==

  ==> DFJK: Density-Fitted J/K Matrices <==

    J tasked:                  Yes
    K tasked:                  Yes
    wK tasked:                  No
    OpenMP threads:              1
    Integrals threads:           1
    Memory (MB):               178
    Algorithm:                Core
    Integral Cache:           SAVE
    Schwarz Cutoff:          0E+00
    Fitting Condition:       1E-12

   => Auxiliary Basis Set <=

  Basis Set: CC-PVDZ-JKFIT
    Number of shells: 84
    Number of basis function: 232
    Number of Cartesian functions: 262
    Spherical Harmonics?: true
    Max angular momentum: 3

  ==> Iterations <==

                        Total Energy        Delta E     Density RMS

   @RHF iter   1:  -146.48541097944798   -3.75093e+01   0.00000e+00 
   @RHF iter   2:  -149.91083600587069   -3.42543e+00   1.85535e-01 DIIS
   @RHF iter   3:  -149.93402529670800   -2.31893e-02   1.50663e-02 DIIS
   @RHF iter   4:  -149.93535261049342   -1.32731e-03   4.34041e-03 DIIS
   @RHF iter   5:  -149.93541557233590   -6.29618e-05   9.18818e-04 DIIS
   @RHF iter   6:  -149.93542189993030   -6.32759e-06   3.19976e-04 DIIS
   @RHF iter   7:  -149.93542200994622   -1.10016e-07   4.38983e-05 DIIS
   @RHF iter   8:  -149.93542201065523   -7.09008e-10   2.80188e-06 DIIS
   @RHF iter   9:  -149.93542201072319   -6.79563e-11   1.01883e-06 DIIS
   @RHF iter  10:  -149.93542201072660   -3.41061e-12   2.75466e-07 DIIS

  ==> Post-Iterations <==

	Orbital Energies (a.u.)
	-----------------------

	Doubly Occupied:                                                      

	   1A    -20.270949     2A    -20.199677     3A     -1.293702  
	   4A     -1.235951     5A     -0.641000     6A     -0.593646  
	   7A     -0.482498     8A     -0.434993     9A     -0.399471  
	  10A     -0.360350  

	Virtual:                                                              

	  11A      0.572924    12A      0.658161    13A      0.717472  
	  14A      0.792128  

	Final Occupation by Irrep:
	          A 
	DOCC [    10 ]

  Energy converged.

  @RHF Final Energy:  -149.93542201072660

   => Energetics <=

    Nuclear Repulsion Energy =         36.6628478527552986
    One-Electron Energy =            -281.3720628256472764
    Two-Electron Energy =              94.7737929621653876
    DFT Functional Energy =             0.0000000000000000
    Empirical Dispersion Energy =       0.0000000000000000
    Total Energy =                   -149.9354220107265974

  ==> Properties <==

  Nuclear Dipole Moment: (a.u.)
     X:     1.0217      Y:     0.0515      Z:     0.0000

  Electronic Dipole Moment: (a.u.)
     X:    -0.1336      Y:    -0.0468      Z:    -0.0000

  Dipole Moment: (a.u.)
     X:     0.8881      Y:     0.0046      Z:    -0.0000     Total:     0.8881

  Dipole Moment: (Debye)
     X:     2.2574      Y:     0.0117      Z:    -0.0000     Total:     2.2574


  Saving occupied orbitals to File 180.

  Saving SAPT 2-DIMER file.

*** tstop() called on lawn-143-215-103-161.lawn.gatech.edu at Fri Apr 27 14:39:55 2012
Module time:
	user time   =       0.18 seconds =       0.00 minutes
	system time =       0.01 seconds =       0.00 minutes
	total time  =          0 seconds =       0.00 minutes
Total time:
	user time   =       0.18 seconds =       0.00 minutes
	system time =       0.01 seconds =       0.00 minutes
	total time  =          0 seconds =       0.00 minutes

  //>>>>>>>>>>>>>>>>>>>>>>>>>>>>>>>>>>>//
  //            Monomer A HF           //
  //<<<<<<<<<<<<<<<<<<<<<<<<<<<<<<<<<<<//


*** tstart() called on lawn-143-215-103-161.lawn.gatech.edu
*** at Fri Apr 27 14:39:55 2012


         ---------------------------------------------------------
                                   SCF
            by Justin Turney, Rob Parrish, and Andy Simmonett
                              RHF Reference
                        1 Threads,    250 MiB Core
         ---------------------------------------------------------

  ==> Geometry <==

    Molecular point group: c1

    Geometry (in Angstrom), charge = 0, multiplicity = 1:

       Center              X                  Y                   Z       
    ------------   -----------------  -----------------  -----------------
           O         -1.485163346097    -0.114724564047     0.000000000000
           H         -1.868415346097     0.762298435953     0.000000000000
           H         -0.533833346097     0.040507435953     0.000000000000
           O(Gh)      1.416468653903     0.111264435953     0.000000000000
           H(Gh)      1.746241653903    -0.373945564047    -0.758561000000
           H(Gh)      1.746241653903    -0.373945564047     0.758561000000

  Running in c1 symmetry.

  Nuclear repulsion =    9.163830145965930

  Charge       = 0
  Multiplicity = 1
  Electrons    = 10
  Nalpha       = 5
  Nbeta        = 5

  ==> Algorithm <==

  SCF Algorithm Type is DF.
  DIIS enabled.
  MOM disabled.
  Fractional occupation disabled.
  Guess Type is CORE.
  Energy threshold   = 1.00e-08
  Density threshold  = 1.00e-08
  Integral threshold = 0.00e+00

  ==> Primary Basis <==

  Basis Set: STO-3G
    Number of shells: 10
    Number of basis function: 14
    Number of Cartesian functions: 14
    Spherical Harmonics?: true
    Max angular momentum: 1

  ==> Pre-Iterations <==

  Minimum eigenvalue in the overlap matrix is 3.3873562909E-01.
  Using Symmetric Orthogonalization.
  SCF Guess: Core (One-Electron) Hamiltonian.

  Initial RHF energy:   -54.50280017138590

   -------------------------------------------------------
    Irrep   Nso     Nmo     Nalpha   Nbeta   Ndocc  Nsocc
   -------------------------------------------------------
     A         14      14       5       5       5       0
   -------------------------------------------------------
    Total      14      14       5       5       5       0
   -------------------------------------------------------

  ==> Integral Setup <==

  ==> DFJK: Density-Fitted J/K Matrices <==

    J tasked:                  Yes
    K tasked:                  Yes
    wK tasked:                  No
    OpenMP threads:              1
    Integrals threads:           1
    Memory (MB):               178
    Algorithm:                Core
    Integral Cache:           LOAD
    Schwarz Cutoff:          0E+00
    Fitting Condition:       1E-12

   => Auxiliary Basis Set <=

  Basis Set: CC-PVDZ-JKFIT
    Number of shells: 84
    Number of basis function: 232
    Number of Cartesian functions: 262
    Spherical Harmonics?: true
    Max angular momentum: 3

  ==> Iterations <==

                        Total Energy        Delta E     Density RMS

   @RHF iter   1:   -73.22417155164123   -1.87214e+01   0.00000e+00 
   @RHF iter   2:   -74.94144765536328   -1.71728e+00   1.32310e-01 DIIS
   @RHF iter   3:   -74.96244371071828   -2.09961e-02   1.35182e-02 DIIS
   @RHF iter   4:   -74.96351822957593   -1.07452e-03   3.96007e-03 DIIS
   @RHF iter   5:   -74.96356794344001   -4.97139e-05   8.65312e-04 DIIS
   @RHF iter   6:   -74.96357060727331   -2.66383e-06   2.10237e-04 DIIS
   @RHF iter   7:   -74.96357063450645   -2.72331e-08   2.06806e-05 DIIS
   @RHF iter   8:   -74.96357063454631   -3.98614e-11   5.42445e-07 DIIS
   @RHF iter   9:   -74.96357063454676   -4.40536e-13   6.36967e-08 DIIS
   @RHF iter  10:   -74.96357063454668    7.10543e-14   1.13041e-08 DIIS

  ==> Post-Iterations <==

	Orbital Energies (a.u.)
	-----------------------

	Doubly Occupied:                                                      

	   1A    -20.242922     2A     -1.267241     3A     -0.616117  
	   4A     -0.453242     5A     -0.391490  

	Virtual:                                                              

	   6A      0.484080     7A      0.627365     8A      0.751795  
	   9A      0.980377    10A      1.337644    11A      2.539150  
	  12A      2.931314    13A      3.249361    14A     31.248545  

	Final Occupation by Irrep:
	          A 
	DOCC [     5 ]

  Energy converged.

  @RHF Final Energy:   -74.96357063454668

   => Energetics <=

    Nuclear Repulsion Energy =          9.1638301459659299
    One-Electron Energy =            -122.3127782091218307
    Two-Electron Energy =              38.1853774286092147
    DFT Functional Energy =             0.0000000000000000
    Empirical Dispersion Energy =       0.0000000000000000
    Total Energy =                    -74.9635706345466843

  ==> Properties <==

  Nuclear Dipole Moment: (a.u.)
     X:   -26.9920      Y:    -0.2173      Z:     0.0000

  Electronic Dipole Moment: (a.u.)
     X:    27.3114      Y:     0.8134      Z:    -0.0000

  Dipole Moment: (a.u.)
     X:     0.3194      Y:     0.5961      Z:    -0.0000     Total:     0.6763

  Dipole Moment: (Debye)
     X:     0.8119      Y:     1.5152      Z:    -0.0000     Total:     1.7190


  Saving occupied orbitals to File 180.

  Saving SAPT 2-MONOMER_A file.

*** tstop() called on lawn-143-215-103-161.lawn.gatech.edu at Fri Apr 27 14:39:55 2012
Module time:
	user time   =       0.04 seconds =       0.00 minutes
	system time =       0.01 seconds =       0.00 minutes
	total time  =          0 seconds =       0.00 minutes
Total time:
	user time   =       0.22 seconds =       0.00 minutes
	system time =       0.02 seconds =       0.00 minutes
	total time  =          0 seconds =       0.00 minutes

  //>>>>>>>>>>>>>>>>>>>>>>>>>>>>>>>>>>>//
  //            Monomer B HF           //
  //<<<<<<<<<<<<<<<<<<<<<<<<<<<<<<<<<<<//


*** tstart() called on lawn-143-215-103-161.lawn.gatech.edu
*** at Fri Apr 27 14:39:55 2012


         ---------------------------------------------------------
                                   SCF
            by Justin Turney, Rob Parrish, and Andy Simmonett
                              RHF Reference
                        1 Threads,    250 MiB Core
         ---------------------------------------------------------

  ==> Geometry <==

    Molecular point group: c1

    Geometry (in Angstrom), charge = 0, multiplicity = 1:

       Center              X                  Y                   Z       
    ------------   -----------------  -----------------  -----------------
           O(Gh)     -1.485163346097    -0.114724564047     0.000000000000
           H(Gh)     -1.868415346097     0.762298435953     0.000000000000
           H(Gh)     -0.533833346097     0.040507435953     0.000000000000
           O          1.416468653903     0.111264435953     0.000000000000
           H          1.746241653903    -0.373945564047    -0.758561000000
           H          1.746241653903    -0.373945564047     0.758561000000

  Running in c1 symmetry.

  Nuclear repulsion =    9.178038904903588

  Charge       = 0
  Multiplicity = 1
  Electrons    = 10
  Nalpha       = 5
  Nbeta        = 5

  ==> Algorithm <==

  SCF Algorithm Type is DF.
  DIIS enabled.
  MOM disabled.
  Fractional occupation disabled.
  Guess Type is CORE.
  Energy threshold   = 1.00e-08
  Density threshold  = 1.00e-08
  Integral threshold = 0.00e+00

  ==> Primary Basis <==

  Basis Set: STO-3G
    Number of shells: 10
    Number of basis function: 14
    Number of Cartesian functions: 14
    Spherical Harmonics?: true
    Max angular momentum: 1

  ==> Pre-Iterations <==

  Minimum eigenvalue in the overlap matrix is 3.3873562909E-01.
  Using Symmetric Orthogonalization.
  SCF Guess: Core (One-Electron) Hamiltonian.

  Initial RHF energy:   -54.50970522373282

   -------------------------------------------------------
    Irrep   Nso     Nmo     Nalpha   Nbeta   Ndocc  Nsocc
   -------------------------------------------------------
     A         14      14       5       5       5       0
   -------------------------------------------------------
    Total      14      14       5       5       5       0
   -------------------------------------------------------

  ==> Integral Setup <==

  ==> DFJK: Density-Fitted J/K Matrices <==

    J tasked:                  Yes
    K tasked:                  Yes
    wK tasked:                  No
    OpenMP threads:              1
    Integrals threads:           1
    Memory (MB):               178
    Algorithm:                Core
    Integral Cache:           LOAD
    Schwarz Cutoff:          0E+00
    Fitting Condition:       1E-12

   => Auxiliary Basis Set <=

  Basis Set: CC-PVDZ-JKFIT
    Number of shells: 84
    Number of basis function: 232
    Number of Cartesian functions: 262
    Spherical Harmonics?: true
    Max angular momentum: 3

  ==> Iterations <==

                        Total Energy        Delta E     Density RMS

   @RHF iter   1:   -73.20681544485451   -1.86971e+01   0.00000e+00 
   @RHF iter   2:   -74.94351687766536   -1.73670e+00   1.33226e-01 DIIS
   @RHF iter   3:   -74.96852988225312   -2.50130e-02   1.40836e-02 DIIS
   @RHF iter   4:   -74.96958862386909   -1.05874e-03   3.82080e-03 DIIS
   @RHF iter   5:   -74.96962315609507   -3.45322e-05   6.57744e-04 DIIS
   @RHF iter   6:   -74.96962634690651   -3.19081e-06   2.33881e-04 DIIS
   @RHF iter   7:   -74.96962638662500   -3.97185e-08   2.65450e-05 DIIS
   @RHF iter   8:   -74.96962638685966   -2.34664e-10   1.93222e-06 DIIS
   @RHF iter   9:   -74.96962638687111   -1.14539e-11   5.13926e-07 DIIS
   @RHF iter  10:   -74.96962638687117   -5.68434e-14   1.73654e-08 DIIS

  ==> Post-Iterations <==

	Orbital Energies (a.u.)
	-----------------------

	Doubly Occupied:                                                      

	   1A    -20.253201     2A     -1.272808     3A     -0.622131  
	   4A     -0.458606     5A     -0.396635  

	Virtual:                                                              

	   6A      0.548570     7A      0.603866     8A      0.735210  
	   9A      1.035872    10A      1.381361    11A      2.545781  
	  12A      2.957427    13A      3.296803    14A     31.282753  

	Final Occupation by Irrep:
	          A 
	DOCC [     5 ]

  Energy converged.

  @RHF Final Energy:   -74.96962638687117

   => Energetics <=

    Nuclear Repulsion Energy =          9.1780389049035875
    One-Electron Energy =            -122.2885701844154767
    Two-Electron Energy =              38.1409048926407266
    DFT Functional Energy =             0.0000000000000000
    Empirical Dispersion Energy =       0.0000000000000000
    Total Energy =                    -74.9696263868711696

  ==> Properties <==

  Nuclear Dipole Moment: (a.u.)
     X:    28.0137      Y:     0.2688      Z:     0.0000

  Electronic Dipole Moment: (a.u.)
     X:   -27.5822      Y:    -0.8369      Z:    -0.0000

  Dipole Moment: (a.u.)
     X:     0.4316      Y:    -0.5681      Z:    -0.0000     Total:     0.7134

  Dipole Moment: (Debye)
     X:     1.0970      Y:    -1.4439      Z:    -0.0000     Total:     1.8134


  Saving occupied orbitals to File 180.

  Saving SAPT 2-MONOMER_B file.

*** tstop() called on lawn-143-215-103-161.lawn.gatech.edu at Fri Apr 27 14:39:55 2012
Module time:
	user time   =       0.05 seconds =       0.00 minutes
	system time =       0.01 seconds =       0.00 minutes
	total time  =          0 seconds =       0.00 minutes
Total time:
	user time   =       0.27 seconds =       0.00 minutes
	system time =       0.03 seconds =       0.00 minutes
	total time  =          0 seconds =       0.00 minutes

  //>>>>>>>>>>>>>>>>>>>>>>>>>>>>>>>>>>>//
  //               SAPT0               //
  //<<<<<<<<<<<<<<<<<<<<<<<<<<<<<<<<<<<//


*** tstart() called on lawn-143-215-103-161.lawn.gatech.edu
*** at Fri Apr 27 14:39:55 2012

        SAPT0  
    Ed Hohenstein
     6 June 2009

      Orbital Information
  --------------------------
    NSO        =        14
    NMO        =        14
    NRI        =       168
    NOCC A     =         5
    NOCC B     =         5
    FOCC A     =         0
    FOCC B     =         0
    NVIR A     =         9
    NVIR B     =         9

    Elst10,r            =    -0.013550570669 H
    Exch10              =     0.014146963732 H
    Exch10 (S^2)        =     0.014040780079 H

    Iter     Energy (mH)           dE (mH)          Residual      Time (s)
       1      -2.16790443       2.167904427       5.994571272             0
       2      -2.54391980       0.376015375       0.316856885             0
       3      -2.54283463      -0.001085177       0.048242595             0
       4      -2.54240335      -0.000431276       0.006098987             0
       5      -2.54248115       0.000077801       0.000873804             0
       6      -2.54247550      -0.000005649       0.000210935             0
       7      -2.54247646       0.000000956       0.000030604             0
       8      -2.54247634      -0.000000121       0.000005014             0
       9      -2.54247635       0.000000017       0.000000619             0

    CHF Iterations converged


    Iter     Energy (mH)           dE (mH)          Residual      Time (s)
       1      -2.81100238       2.811002377       9.960542325             0
       2      -3.69888869       0.887886315       0.414983485             0
       3      -3.69914743       0.000258733       0.112888077             0
       4      -3.69831977      -0.000827651       0.017983495             0
       5      -3.69846937       0.000149596       0.001060092             0
       6      -3.69846665      -0.000002722       0.000120786             0
       7      -3.69846686       0.000000213       0.000018999             0
       8      -3.69846683      -0.000000029       0.000005718             0
       9      -3.69846684       0.000000006       0.000000498             0

    CHF Iterations converged

    Ind20,r (A<-B)      =    -0.002542476353 H
    Ind20,r (B<-A)      =    -0.003698466839 H
    Ind20,r             =    -0.006240943192 H
    Exch-Ind20,r (A<-B) =     0.002111091207 H
    Exch-Ind20,r (B<-A) =     0.002165717426 H
    Exch-Ind20,r        =     0.004276808633 H
    Disp20              =    -0.000539844215 H
    Disp20 (SS)         =    -0.000269922107 H
    Disp20 (OS)         =    -0.000269922107 H
    Exch-Disp20         =     0.000170710697 H
    Exch-Disp20 (SS)    =     0.000043732363 H
    Exch-Disp20 (OS)    =     0.000126978334 H

    SAPT Results  
  -----------------------------------------------------------------------
    Electrostatics         -13.55057067 mH      -8.50311183 kcal mol^-1
      Elst10,r             -13.55057067 mH      -8.50311183 kcal mol^-1

    Exchange                14.14696373 mH       8.87735414 kcal mol^-1
      Exch10                14.14696373 mH       8.87735414 kcal mol^-1
      Exch10(S^2)           14.04078008 mH       8.81072289 kcal mol^-1

    Induction               -2.82138237 mH      -1.77044424 kcal mol^-1
      Ind20,r               -6.24094319 mH      -3.91625114 kcal mol^-1
      Exch-Ind20,r           4.27680863 mH       2.68373805 kcal mol^-1
      delta HF,r            -0.85724781 mH      -0.53793115 kcal mol^-1

    Dispersion              -0.36913352 mH      -0.23163479 kcal mol^-1
      Disp20                -0.53984421 mH      -0.33875737 kcal mol^-1
      Exch-Disp20            0.17071070 mH       0.10712258 kcal mol^-1

    SCS Dispersion          -0.24692911 mH      -0.15495036 kcal mol^-1
      Disp20 (SS)           -0.26992211 mH      -0.16937869 kcal mol^-1
      Disp20 (OS)           -0.26992211 mH      -0.16937869 kcal mol^-1
      Exch-Disp20 (SS)       0.04373236 mH       0.02744247 kcal mol^-1
      Exch-Disp20 (OS)       0.12697833 mH       0.07968011 kcal mol^-1

    Same-Spin Scale          3.333E-01
    Opposite-Spin Scale      1.200E+00

    Total HF                -2.22498931 mH      -1.39620193 kcal mol^-1
    Total SAPT0             -2.59412283 mH      -1.62783672 kcal mol^-1
    Total SCS-SAPT0         -2.47191842 mH      -1.55115229 kcal mol^-1

*** tstop() called on lawn-143-215-103-161.lawn.gatech.edu at Fri Apr 27 14:39:56 2012
Module time:
	user time   =       0.19 seconds =       0.00 minutes
	system time =       0.04 seconds =       0.00 minutes
	total time  =          1 seconds =       0.02 minutes
Total time:
	user time   =       0.46 seconds =       0.01 minutes
	system time =       0.07 seconds =       0.00 minutes
	total time  =          1 seconds =       0.02 minutes


  Variable Map:
  ----------------------------------------------------------------------------
  "CURRENT ENERGY"           =>      -0.002594122826
  "CURRENT REFERENCE ENERGY" =>     -74.969626386871
  "NATOM"                    =>       6.000000000000
  "NUCLEAR REPULSION ENERGY" =>       9.178038904904
  "ONE-ELECTRON ENERGY"      =>    -122.288570184415
  "SAPT CT ENERGY"           =>      -0.001964134559
  "SAPT DISP ENERGY"         =>      -0.000369133518
  "SAPT ELST ENERGY"         =>      -0.013550570669
  "SAPT ENERGY"              =>      -0.002594122826
  "SAPT EXCH ENERGY"         =>       0.014146963732
  "SAPT IND ENERGY"          =>      -0.002821382372
  "SAPT SAPT0 ENERGY"        =>      -0.002594122826
  "SAPT SCS-DISP ENERGY"     =>      -0.000246929109
  "SAPT SCS-SAPT0 ENERGY"    =>      -0.002471918418
  "SCF DIPOLE X"             =>       1.096978905315
  "SCF DIPOLE Y"             =>      -1.443948920786
  "SCF DIPOLE Z"             =>      -0.000000000002
  "SCF ITERATION ENERGY"     =>     -74.969626386871
  "SCF TOTAL ENERGY"         =>     -74.969626386871
  "TWO-ELECTRON ENERGY"      =>      38.140904892641


   Database Contributions Map:
   ---------------------------------------------------------------------------
   reagent S22-2-dimer contributes by 1.0000 to reaction S22-2


  //>>>>>>>>>>>>>>>>>>>>>>>>>>>>>>>>>>>>>>>>>>>>>>>//
  // Database S22 Computation: Reagent S22-8-dimer //
  //                   Methane Dimer               //
  //<<<<<<<<<<<<<<<<<<<<<<<<<<<<<<<<<<<<<<<<<<<<<<<//


  Memory set to 250.000 MiB by Python script.

  //>>>>>>>>>>>>>>>>>>>>>>>>>>>>>>>>>>>//
  //              Dimer HF             //
  //<<<<<<<<<<<<<<<<<<<<<<<<<<<<<<<<<<<//


*** tstart() called on lawn-143-215-103-161.lawn.gatech.edu
*** at Fri Apr 27 14:39:56 2012


         ---------------------------------------------------------
                                   SCF
            by Justin Turney, Rob Parrish, and Andy Simmonett
                              RHF Reference
                        1 Threads,    250 MiB Core
         ---------------------------------------------------------

  ==> Geometry <==

    Molecular point group: c1

    Geometry (in Angstrom), charge = 0, multiplicity = 1:

       Center              X                  Y                   Z       
    ------------   -----------------  -----------------  -----------------
           C          0.000140000000    -1.859161000000     0.000000000000
           H         -0.513060000000    -1.494685000000    -0.888551000000
           H         -0.513060000000    -1.494685000000     0.888551000000
           H          1.026339000000    -1.494868000000     0.000000000000
           H         -0.000089000000    -2.948284000000     0.000000000000
           C         -0.000140000000     1.859161000000     0.000000000000
           H          0.000089000000     2.948284000000     0.000000000000
           H          0.513060000000     1.494685000000    -0.888551000000
           H          0.513060000000     1.494685000000     0.888551000000
           H         -1.026339000000     1.494868000000     0.000000000000

  Running in c1 symmetry.

  Nuclear repulsion =   41.000263795263322

  Charge       = 0
  Multiplicity = 1
  Electrons    = 20
  Nalpha       = 10
  Nbeta        = 10

  ==> Algorithm <==

  SCF Algorithm Type is DF.
  DIIS enabled.
  MOM disabled.
  Fractional occupation disabled.
  Guess Type is CORE.
  Energy threshold   = 1.00e-06
  Density threshold  = 1.00e-08
  Integral threshold = 0.00e+00

  ==> Primary Basis <==

  Basis Set: STO-3G
    Number of shells: 14
    Number of basis function: 18
    Number of Cartesian functions: 18
    Spherical Harmonics?: true
    Max angular momentum: 1

  ==> Pre-Iterations <==

  Minimum eigenvalue in the overlap matrix is 2.1787643923E-01.
  Using Symmetric Orthogonalization.
  SCF Guess: Core (One-Electron) Hamiltonian.

  Initial RHF energy:   -58.35647470050908

   -------------------------------------------------------
    Irrep   Nso     Nmo     Nalpha   Nbeta   Ndocc  Nsocc
   -------------------------------------------------------
     A         18      18      10      10      10       0
   -------------------------------------------------------
    Total      18      18      10      10      10       0
   -------------------------------------------------------

  ==> Integral Setup <==

  ==> DFJK: Density-Fitted J/K Matrices <==

    J tasked:                  Yes
    K tasked:                  Yes
    wK tasked:                  No
    OpenMP threads:              1
    Integrals threads:           1
    Memory (MB):               178
    Algorithm:                Core
    Integral Cache:           SAVE
    Schwarz Cutoff:          0E+00
    Fitting Condition:       1E-12

   => Auxiliary Basis Set <=

  Basis Set: CC-PVDZ-JKFIT
    Number of shells: 120
    Number of basis function: 324
    Number of Cartesian functions: 362
    Spherical Harmonics?: true
    Max angular momentum: 3

  ==> Iterations <==

                        Total Energy        Delta E     Density RMS

   @RHF iter   1:   -72.16638027778505   -1.38099e+01   0.00000e+00 
   @RHF iter   2:   -79.11382639626152   -6.94745e+00   2.52268e-01 DIIS
   @RHF iter   3:   -79.45061082622169   -3.36784e-01   3.48025e-02 DIIS
   @RHF iter   4:   -79.45311488509572   -2.50406e-03   3.45483e-03 DIIS
   @RHF iter   5:   -79.45314061867074   -2.57336e-05   3.92144e-04 DIIS
   @RHF iter   6:   -79.45314127511600   -6.56445e-07   5.30532e-05 DIIS
   @RHF iter   7:   -79.45314127516440   -4.84022e-11   5.48638e-07 DIIS
   @RHF iter   8:   -79.45314127516583   -1.43530e-12   9.98810e-08 DIIS
   @RHF iter   9:   -79.45314127516593   -9.94760e-14   1.72392e-08 DIIS

  ==> Post-Iterations <==

	Orbital Energies (a.u.)
	-----------------------

	Doubly Occupied:                                                      

	   1A    -11.029546     2A    -11.029546     3A     -0.910905  
	   4A     -0.905847     5A     -0.523035     6A     -0.520007  
	   7A     -0.519940     8A     -0.514808     9A     -0.514739  
	  10A     -0.512309  

	Virtual:                                                              

	  11A      0.709094    12A      0.709213    13A      0.713399  
	  14A      0.716730    15A      0.719596    16A      0.719715  
	  17A      0.738630    18A      0.767778  

	Final Occupation by Irrep:
	          A 
	DOCC [    10 ]

  Energy converged.

  @RHF Final Energy:   -79.45314127516593

   => Energetics <=

    Nuclear Repulsion Energy =         41.0002637952633222
    One-Electron Energy =            -186.9454461847143421
    Two-Electron Energy =              66.4920411142851151
    DFT Functional Energy =             0.0000000000000000
    Empirical Dispersion Energy =       0.0000000000000000
    Total Energy =                    -79.4531412751659047

  ==> Properties <==

  Nuclear Dipole Moment: (a.u.)
     X:     0.0000      Y:    -0.0000      Z:     0.0000

  Electronic Dipole Moment: (a.u.)
     X:    -0.0000      Y:     0.0000      Z:    -0.0000

  Dipole Moment: (a.u.)
     X:    -0.0000      Y:     0.0000      Z:    -0.0000     Total:     0.0000

  Dipole Moment: (Debye)
     X:    -0.0000      Y:     0.0000      Z:    -0.0000     Total:     0.0000


  Saving occupied orbitals to File 180.

  Saving SAPT 2-DIMER file.

*** tstop() called on lawn-143-215-103-161.lawn.gatech.edu at Fri Apr 27 14:39:56 2012
Module time:
	user time   =       0.33 seconds =       0.01 minutes
	system time =       0.01 seconds =       0.00 minutes
	total time  =          0 seconds =       0.00 minutes
Total time:
	user time   =       0.80 seconds =       0.01 minutes
	system time =       0.08 seconds =       0.00 minutes
	total time  =          1 seconds =       0.02 minutes

  //>>>>>>>>>>>>>>>>>>>>>>>>>>>>>>>>>>>//
  //            Monomer A HF           //
  //<<<<<<<<<<<<<<<<<<<<<<<<<<<<<<<<<<<//


*** tstart() called on lawn-143-215-103-161.lawn.gatech.edu
*** at Fri Apr 27 14:39:56 2012


         ---------------------------------------------------------
                                   SCF
            by Justin Turney, Rob Parrish, and Andy Simmonett
                              RHF Reference
                        1 Threads,    250 MiB Core
         ---------------------------------------------------------

  ==> Geometry <==

    Molecular point group: c1

    Geometry (in Angstrom), charge = 0, multiplicity = 1:

       Center              X                  Y                   Z       
    ------------   -----------------  -----------------  -----------------
           C          0.000140000000    -1.859161000000     0.000000000000
           H         -0.513060000000    -1.494685000000    -0.888551000000
           H         -0.513060000000    -1.494685000000     0.888551000000
           H          1.026339000000    -1.494868000000     0.000000000000
           H         -0.000089000000    -2.948284000000     0.000000000000
           C(Gh)     -0.000140000000     1.859161000000     0.000000000000
           H(Gh)      0.000089000000     2.948284000000     0.000000000000
           H(Gh)      0.513060000000     1.494685000000    -0.888551000000
           H(Gh)      0.513060000000     1.494685000000     0.888551000000
           H(Gh)     -1.026339000000     1.494868000000     0.000000000000

  Running in c1 symmetry.

  Nuclear repulsion =   13.448042265558403

  Charge       = 0
  Multiplicity = 1
  Electrons    = 10
  Nalpha       = 5
  Nbeta        = 5

  ==> Algorithm <==

  SCF Algorithm Type is DF.
  DIIS enabled.
  MOM disabled.
  Fractional occupation disabled.
  Guess Type is CORE.
  Energy threshold   = 1.00e-06
  Density threshold  = 1.00e-08
  Integral threshold = 0.00e+00

  ==> Primary Basis <==

  Basis Set: STO-3G
    Number of shells: 14
    Number of basis function: 18
    Number of Cartesian functions: 18
    Spherical Harmonics?: true
    Max angular momentum: 1

  ==> Pre-Iterations <==

  Minimum eigenvalue in the overlap matrix is 2.1787643923E-01.
  Using Symmetric Orthogonalization.
  SCF Guess: Core (One-Electron) Hamiltonian.

  Initial RHF energy:   -29.14149357997023

   -------------------------------------------------------
    Irrep   Nso     Nmo     Nalpha   Nbeta   Ndocc  Nsocc
   -------------------------------------------------------
     A         18      18       5       5       5       0
   -------------------------------------------------------
    Total      18      18       5       5       5       0
   -------------------------------------------------------

  ==> Integral Setup <==

  ==> DFJK: Density-Fitted J/K Matrices <==

    J tasked:                  Yes
    K tasked:                  Yes
    wK tasked:                  No
    OpenMP threads:              1
    Integrals threads:           1
    Memory (MB):               178
    Algorithm:                Core
    Integral Cache:           LOAD
    Schwarz Cutoff:          0E+00
    Fitting Condition:       1E-12

   => Auxiliary Basis Set <=

  Basis Set: CC-PVDZ-JKFIT
    Number of shells: 120
    Number of basis function: 324
    Number of Cartesian functions: 362
    Spherical Harmonics?: true
    Max angular momentum: 3

  ==> Iterations <==

                        Total Energy        Delta E     Density RMS

   @RHF iter   1:   -36.07987761135607   -6.93838e+00   0.00000e+00 
   @RHF iter   2:   -39.55753613529208   -3.47766e+00   1.78375e-01 DIIS
   @RHF iter   3:   -39.72555068519303   -1.68015e-01   2.45155e-02 DIIS
   @RHF iter   4:   -39.72680273420460   -1.25205e-03   2.42000e-03 DIIS
   @RHF iter   5:   -39.72681535580934   -1.26216e-05   2.73254e-04 DIIS
   @RHF iter   6:   -39.72681566091244   -3.05103e-07   3.55666e-05 DIIS
   @RHF iter   7:   -39.72681566108399   -1.71553e-10   8.40288e-07 DIIS
   @RHF iter   8:   -39.72681566108488   -8.95284e-13   6.81828e-08 DIIS

  ==> Post-Iterations <==

	Orbital Energies (a.u.)
	-----------------------

	Doubly Occupied:                                                      

	   1A    -11.030326     2A     -0.909089     3A     -0.518508  
	   4A     -0.518114     5A     -0.518047  

	Virtual:                                                              

	   6A      0.364472     7A      0.713218     8A      0.713337  
	   9A      0.714314    10A      0.750861    11A      0.868993  
	  12A      0.869087    13A      0.869548    14A      1.526843  
	  15A      2.225122    16A      2.225381    17A      2.226912  
	  18A     17.617786  

	Final Occupation by Irrep:
	          A 
	DOCC [     5 ]

  Energy converged.

  @RHF Final Energy:   -39.72681566108488

   => Energetics <=

    Nuclear Repulsion Energy =         13.4480422655584029
    One-Electron Energy =             -79.3615473550780166
    Two-Electron Energy =              26.1866894284347360
    DFT Functional Energy =             0.0000000000000000
    Empirical Dispersion Energy =       0.0000000000000000
    Total Energy =                    -39.7268156610848848

  ==> Properties <==

  Nuclear Dipole Moment: (a.u.)
     X:     0.0018      Y:   -35.1253      Z:     0.0000

  Electronic Dipole Moment: (a.u.)
     X:    -0.0019      Y:    35.1239      Z:     0.0000

  Dipole Moment: (a.u.)
     X:    -0.0000      Y:    -0.0014      Z:     0.0000     Total:     0.0014

  Dipole Moment: (Debye)
     X:    -0.0001      Y:    -0.0036      Z:     0.0000     Total:     0.0036


  Saving occupied orbitals to File 180.

  Saving SAPT 2-MONOMER_A file.

*** tstop() called on lawn-143-215-103-161.lawn.gatech.edu at Fri Apr 27 14:39:56 2012
Module time:
	user time   =       0.06 seconds =       0.00 minutes
	system time =       0.01 seconds =       0.00 minutes
	total time  =          0 seconds =       0.00 minutes
Total time:
	user time   =       0.86 seconds =       0.01 minutes
	system time =       0.09 seconds =       0.00 minutes
	total time  =          1 seconds =       0.02 minutes

  //>>>>>>>>>>>>>>>>>>>>>>>>>>>>>>>>>>>//
  //            Monomer B HF           //
  //<<<<<<<<<<<<<<<<<<<<<<<<<<<<<<<<<<<//


*** tstart() called on lawn-143-215-103-161.lawn.gatech.edu
*** at Fri Apr 27 14:39:56 2012


         ---------------------------------------------------------
                                   SCF
            by Justin Turney, Rob Parrish, and Andy Simmonett
                              RHF Reference
                        1 Threads,    250 MiB Core
         ---------------------------------------------------------

  ==> Geometry <==

    Molecular point group: c1

    Geometry (in Angstrom), charge = 0, multiplicity = 1:

       Center              X                  Y                   Z       
    ------------   -----------------  -----------------  -----------------
           C(Gh)      0.000140000000    -1.859161000000     0.000000000000
           H(Gh)     -0.513060000000    -1.494685000000    -0.888551000000
           H(Gh)     -0.513060000000    -1.494685000000     0.888551000000
           H(Gh)      1.026339000000    -1.494868000000     0.000000000000
           H(Gh)     -0.000089000000    -2.948284000000     0.000000000000
           C         -0.000140000000     1.859161000000     0.000000000000
           H          0.000089000000     2.948284000000     0.000000000000
           H          0.513060000000     1.494685000000    -0.888551000000
           H          0.513060000000     1.494685000000     0.888551000000
           H         -1.026339000000     1.494868000000     0.000000000000

  Running in c1 symmetry.

  Nuclear repulsion =   13.448042265558403

  Charge       = 0
  Multiplicity = 1
  Electrons    = 10
  Nalpha       = 5
  Nbeta        = 5

  ==> Algorithm <==

  SCF Algorithm Type is DF.
  DIIS enabled.
  MOM disabled.
  Fractional occupation disabled.
  Guess Type is CORE.
  Energy threshold   = 1.00e-06
  Density threshold  = 1.00e-08
  Integral threshold = 0.00e+00

  ==> Primary Basis <==

  Basis Set: STO-3G
    Number of shells: 14
    Number of basis function: 18
    Number of Cartesian functions: 18
    Spherical Harmonics?: true
    Max angular momentum: 1

  ==> Pre-Iterations <==

  Minimum eigenvalue in the overlap matrix is 2.1787643923E-01.
  Using Symmetric Orthogonalization.
  SCF Guess: Core (One-Electron) Hamiltonian.

  Initial RHF energy:   -29.14149357997029

   -------------------------------------------------------
    Irrep   Nso     Nmo     Nalpha   Nbeta   Ndocc  Nsocc
   -------------------------------------------------------
     A         18      18       5       5       5       0
   -------------------------------------------------------
    Total      18      18       5       5       5       0
   -------------------------------------------------------

  ==> Integral Setup <==

  ==> DFJK: Density-Fitted J/K Matrices <==

    J tasked:                  Yes
    K tasked:                  Yes
    wK tasked:                  No
    OpenMP threads:              1
    Integrals threads:           1
    Memory (MB):               178
    Algorithm:                Core
    Integral Cache:           LOAD
    Schwarz Cutoff:          0E+00
    Fitting Condition:       1E-12

   => Auxiliary Basis Set <=

  Basis Set: CC-PVDZ-JKFIT
    Number of shells: 120
    Number of basis function: 324
    Number of Cartesian functions: 362
    Spherical Harmonics?: true
    Max angular momentum: 3

  ==> Iterations <==

                        Total Energy        Delta E     Density RMS

   @RHF iter   1:   -36.07987761135621   -6.93838e+00   0.00000e+00 
   @RHF iter   2:   -39.55753613529238   -3.47766e+00   1.78375e-01 DIIS
   @RHF iter   3:   -39.72555068519361   -1.68015e-01   2.45155e-02 DIIS
   @RHF iter   4:   -39.72680273420512   -1.25205e-03   2.42000e-03 DIIS
   @RHF iter   5:   -39.72681535580995   -1.26216e-05   2.73254e-04 DIIS
   @RHF iter   6:   -39.72681566091303   -3.05103e-07   3.55666e-05 DIIS
   @RHF iter   7:   -39.72681566108449   -1.71454e-10   8.40288e-07 DIIS
   @RHF iter   8:   -39.72681566108548   -9.94760e-13   6.81828e-08 DIIS

  ==> Post-Iterations <==

	Orbital Energies (a.u.)
	-----------------------

	Doubly Occupied:                                                      

	   1A    -11.030326     2A     -0.909089     3A     -0.518508  
	   4A     -0.518114     5A     -0.518047  

	Virtual:                                                              

	   6A      0.364472     7A      0.713218     8A      0.713337  
	   9A      0.714314    10A      0.750861    11A      0.868993  
	  12A      0.869087    13A      0.869548    14A      1.526843  
	  15A      2.225122    16A      2.225381    17A      2.226912  
	  18A     17.617786  

	Final Occupation by Irrep:
	          A 
	DOCC [     5 ]

  Energy converged.

  @RHF Final Energy:   -39.72681566108548

   => Energetics <=

    Nuclear Repulsion Energy =         13.4480422655584029
    One-Electron Energy =             -79.3615473550774482
    Two-Electron Energy =              26.1866894284335743
    DFT Functional Energy =             0.0000000000000000
    Empirical Dispersion Energy =       0.0000000000000000
    Total Energy =                    -39.7268156610854746

  ==> Properties <==

  Nuclear Dipole Moment: (a.u.)
     X:    -0.0018      Y:    35.1253      Z:     0.0000

  Electronic Dipole Moment: (a.u.)
     X:     0.0019      Y:   -35.1239      Z:    -0.0000

  Dipole Moment: (a.u.)
     X:     0.0000      Y:     0.0014      Z:    -0.0000     Total:     0.0014

  Dipole Moment: (Debye)
     X:     0.0001      Y:     0.0036      Z:    -0.0000     Total:     0.0036


  Saving occupied orbitals to File 180.

  Saving SAPT 2-MONOMER_B file.

*** tstop() called on lawn-143-215-103-161.lawn.gatech.edu at Fri Apr 27 14:39:56 2012
Module time:
	user time   =       0.06 seconds =       0.00 minutes
	system time =       0.00 seconds =       0.00 minutes
	total time  =          0 seconds =       0.00 minutes
Total time:
	user time   =       0.92 seconds =       0.02 minutes
	system time =       0.09 seconds =       0.00 minutes
	total time  =          1 seconds =       0.02 minutes

  //>>>>>>>>>>>>>>>>>>>>>>>>>>>>>>>>>>>//
  //               SAPT0               //
  //<<<<<<<<<<<<<<<<<<<<<<<<<<<<<<<<<<<//


*** tstart() called on lawn-143-215-103-161.lawn.gatech.edu
*** at Fri Apr 27 14:39:56 2012

        SAPT0  
    Ed Hohenstein
     6 June 2009

      Orbital Information
  --------------------------
    NSO        =        18
    NMO        =        18
    NRI        =       224
    NOCC A     =         5
    NOCC B     =         5
    FOCC A     =         0
    FOCC B     =         0
    NVIR A     =        13
    NVIR B     =        13

    Elst10,r            =    -0.000128747367 H
    Exch10              =     0.000641792204 H
    Exch10 (S^2)        =     0.000641598639 H

    Iter     Energy (mH)           dE (mH)          Residual      Time (s)
       1      -0.04254387       0.042543875       0.697202863             0
       2      -0.04978715       0.007243280       0.025015604             0
       3      -0.04978419      -0.000002962       0.003683254             0
       4      -0.04977938      -0.000004815       0.000474744             0
       5      -0.04977983       0.000000453       0.000038587             0
       6      -0.04977981      -0.000000022       0.000003802             0
       7      -0.04977981       0.000000002       0.000000243             0

    CHF Iterations converged


    Iter     Energy (mH)           dE (mH)          Residual      Time (s)
       1      -0.04254387       0.042543875       0.697202863             0
       2      -0.04978715       0.007243280       0.025015604             0
       3      -0.04978419      -0.000002962       0.003683254             0
       4      -0.04977938      -0.000004815       0.000474744             0
       5      -0.04977983       0.000000453       0.000038587             0
       6      -0.04977981      -0.000000022       0.000003802             0
       7      -0.04977981       0.000000002       0.000000243             0

    CHF Iterations converged

    Ind20,r (A<-B)      =    -0.000049779810 H
    Ind20,r (B<-A)      =    -0.000049779810 H
    Ind20,r             =    -0.000099559621 H
    Exch-Ind20,r (A<-B) =     0.000048453424 H
    Exch-Ind20,r (B<-A) =     0.000048453424 H
    Exch-Ind20,r        =     0.000096906849 H
    Disp20              =    -0.000119099339 H
    Disp20 (SS)         =    -0.000059549669 H
    Disp20 (OS)         =    -0.000059549669 H
    Exch-Disp20         =     0.000010802076 H
    Exch-Disp20 (SS)    =     0.000005742726 H
    Exch-Disp20 (OS)    =     0.000005059350 H

    SAPT Results  
  -----------------------------------------------------------------------
    Electrostatics          -0.12874737 mH      -0.08079020 kcal mol^-1
      Elst10,r              -0.12874737 mH      -0.08079020 kcal mol^-1

    Exchange                 0.64179220 mH       0.40273070 kcal mol^-1
      Exch10                 0.64179220 mH       0.40273070 kcal mol^-1
      Exch10(S^2)            0.64159864 mH       0.40260924 kcal mol^-1

    Induction               -0.02299783 mH      -0.01443136 kcal mol^-1
      Ind20,r               -0.09955962 mH      -0.06247461 kcal mol^-1
      Exch-Ind20,r           0.09690685 mH       0.06080997 kcal mol^-1
      delta HF,r            -0.02034506 mH      -0.01276672 kcal mol^-1

    Dispersion              -0.10829726 mH      -0.06795756 kcal mol^-1
      Disp20                -0.11909934 mH      -0.07473597 kcal mol^-1
      Exch-Disp20            0.01080208 mH       0.00677841 kcal mol^-1

    SCS Dispersion          -0.08332403 mH      -0.05228662 kcal mol^-1
      Disp20 (SS)           -0.05954967 mH      -0.03736798 kcal mol^-1
      Disp20 (OS)           -0.05954967 mH      -0.03736798 kcal mol^-1
      Exch-Disp20 (SS)       0.00574273 mH       0.00360361 kcal mol^-1
      Exch-Disp20 (OS)       0.00505935 mH       0.00317479 kcal mol^-1

    Same-Spin Scale          3.333E-01
    Opposite-Spin Scale      1.200E+00

    Total HF                 0.49004700 mH       0.30750915 kcal mol^-1
    Total SAPT0              0.38174974 mH       0.23955159 kcal mol^-1
    Total SCS-SAPT0          0.40672297 mH       0.25522253 kcal mol^-1

*** tstop() called on lawn-143-215-103-161.lawn.gatech.edu at Fri Apr 27 14:39:56 2012
Module time:
	user time   =       0.31 seconds =       0.01 minutes
	system time =       0.06 seconds =       0.00 minutes
	total time  =          0 seconds =       0.00 minutes
Total time:
	user time   =       1.23 seconds =       0.02 minutes
	system time =       0.15 seconds =       0.00 minutes
	total time  =          1 seconds =       0.02 minutes


  Variable Map:
  ----------------------------------------------------------------------------
  "CURRENT ENERGY"           =>       0.000381749741
  "CURRENT REFERENCE ENERGY" =>     -39.726815661085
  "NATOM"                    =>      10.000000000000
  "NUCLEAR REPULSION ENERGY" =>      13.448042265558
  "ONE-ELECTRON ENERGY"      =>     -79.361547355077
  "SAPT CT ENERGY"           =>      -0.000002652772
  "SAPT DISP ENERGY"         =>      -0.000108297263
  "SAPT ELST ENERGY"         =>      -0.000128747367
  "SAPT ENERGY"              =>       0.000381749741
  "SAPT EXCH ENERGY"         =>       0.000641792204
  "SAPT IND ENERGY"          =>      -0.000022997833
  "SAPT SAPT0 ENERGY"        =>       0.000381749741
  "SAPT SCS-DISP ENERGY"     =>      -0.000083324031
  "SAPT SCS-SAPT0 ENERGY"    =>       0.000406722973
  "SCF DIPOLE X"             =>       0.000099566799
  "SCF DIPOLE Y"             =>       0.003571749747
  "SCF DIPOLE Z"             =>      -0.000000000001
  "SCF ITERATION ENERGY"     =>     -39.726815661085
  "SCF TOTAL ENERGY"         =>     -39.726815661085
  "TWO-ELECTRON ENERGY"      =>      26.186689428434


   Database Contributions Map:
   ---------------------------------------------------------------------------
   reagent S22-8-dimer contributes by 1.0000 to reaction S22-8


  //>>>>>>>>>>>>>>>>>>>>>>>>>>>>>>>>>>>//
  //        Database S22 Results       //
  //<<<<<<<<<<<<<<<<<<<<<<<<<<<<<<<<<<<//

   For each VARIABLE requested by tabulate, a 'Reaction Value' will be formed from
   'Reagent' values according to weightings 'Wt', as for the REQUESTED ENERGY below.
   Depending on the nature of the variable, this may or may not make any physical sense.

   ==> Requested Energy <==

   --------------------------------------------------------------------------
               Reaction     Reaction Energy      Error           Reagent 1
                               Ref     Calc [kcal/mol]              [H] Wt
   --------------------------------------------------------------------------
                  S22-2    -5.0700  -1.6278     3.4422      -0.00259412  1
                  S22-8    -0.5300   0.2396     0.7696       0.00038175  1
   --------------------------------------------------------------------------
            Minimal Dev                         0.7696
            Maximal Dev                         3.4422
        Mean Signed Dev                         2.1059
      Mean Absolute Dev                         2.1059
                RMS Dev                         2.4941
   --------------------------------------------------------------------------


  //>>>>>>>>>>>>>>>>>>>>>>>>>>>>>>>>>>>//
  //     Database NBC10 Computation    //
  //<<<<<<<<<<<<<<<<<<<<<<<<<<<<<<<<<<<//


    The database single-job procedure has been selected through mode='continuous'.
    Calculations for the reagents will proceed in the order below and will be followed
    by summary results for the database.

                    NBC1-BzMe-6.0-dimer
                    NBC1-BzMe-6.0-monoA-CP
                    NBC1-BzMe-6.0-monoB-CP
                    NBC1-MeMe-5.0-dimer
                    NBC1-MeMe-5.0-monoA-CP

    Alternatively, a farming-out of the database calculations may be accessed through
    the database wrapper option mode='sow'/'reap'.


  //>>>>>>>>>>>>>>>>>>>>>>>>>>>>>>>>>>>>>>>>>>>>>>>>>>>>>>>>>//
  // Database NBC10 Computation: Reagent NBC1-BzMe-6.0-dimer //
  //                  Benzene-Methane at 6.0 A               //
  //<<<<<<<<<<<<<<<<<<<<<<<<<<<<<<<<<<<<<<<<<<<<<<<<<<<<<<<<<//


  Memory set to 250.000 MiB by Python script.

*** tstart() called on lawn-143-215-103-161.lawn.gatech.edu
*** at Fri Apr 27 14:39:57 2012


         ---------------------------------------------------------
                                   SCF
            by Justin Turney, Rob Parrish, and Andy Simmonett
                              RHF Reference
                        1 Threads,    250 MiB Core
         ---------------------------------------------------------

  ==> Geometry <==

    Molecular point group: c1

    Geometry (in Angstrom), charge = 0, multiplicity = 1:

       Center              X                  Y                   Z       
    ------------   -----------------  -----------------  -----------------
           C          1.405730861734     0.000000000000     1.022423359722
           C          0.702864861734     1.217399000000     1.022423359722
           C         -0.702865138266     1.217399000000     1.022423359722
           C         -1.405731138266     0.000000000000     1.022423359722
           C         -0.702865138266    -1.217399000000     1.022423359722
           C          0.702865861734    -1.217399000000     1.022423359722
           H          2.500940861734     0.000000000000     1.022423359722
           H          1.250470861734     2.165878000000     1.022423359722
           H         -1.250470138266     2.165878000000     1.022423359722
           H         -2.500941138266     0.000000000000     1.022423359722
           H         -1.250470138266    -2.165878000000     1.022423359722
           H          1.250470861734    -2.165878000000     1.022423359722
           C         -0.000000138266     0.000000000000    -4.977576640278
           H         -0.000000138266     0.000000000000    -3.878073640278
           H          1.036620861734     0.000000000000    -5.344077640278
           H         -0.518311138266    -0.897741000000    -5.344077640278
           H         -0.518311138266     0.897741000000    -5.344077640278

  Running in c1 symmetry.

  Nuclear repulsion =  250.994550638475999

  Charge       = 0
  Multiplicity = 1
  Electrons    = 52
  Nalpha       = 26
  Nbeta        = 26

  ==> Algorithm <==

  SCF Algorithm Type is DF.
  DIIS enabled.
  MOM disabled.
  Fractional occupation disabled.
  Guess Type is CORE.
  Energy threshold   = 1.00e-06
  Density threshold  = 1.00e-08
  Integral threshold = 0.00e+00

  ==> Primary Basis <==

  Basis Set: STO-3G
    Number of shells: 31
    Number of basis function: 45
    Number of Cartesian functions: 45
    Spherical Harmonics?: true
    Max angular momentum: 1

  ==> Pre-Iterations <==

  Minimum eigenvalue in the overlap matrix is 1.7731042128E-01.
  Using Symmetric Orthogonalization.
  SCF Guess: Core (One-Electron) Hamiltonian.

  Initial RHF energy:  -214.51688094266748

   -------------------------------------------------------
    Irrep   Nso     Nmo     Nalpha   Nbeta   Ndocc  Nsocc
   -------------------------------------------------------
     A         45      45      26      26      26       0
   -------------------------------------------------------
    Total      45      45      26      26      26       0
   -------------------------------------------------------

  ==> Integral Setup <==

  ==> DFJK: Density-Fitted J/K Matrices <==

    J tasked:                  Yes
    K tasked:                  Yes
    wK tasked:                  No
    OpenMP threads:              1
    Integrals threads:           1
    Memory (MB):               178
    Algorithm:                Core
    Integral Cache:           NONE
    Schwarz Cutoff:          0E+00
    Fitting Condition:       1E-12

   => Auxiliary Basis Set <=

  Basis Set: CC-PVDZ-JKFIT
    Number of shells: 258
    Number of basis function: 720
    Number of Cartesian functions: 817
    Spherical Harmonics?: true
    Max angular momentum: 3

  ==> Iterations <==

                        Total Energy        Delta E     Density RMS

   @RHF iter   1:  -218.88457223686973   -4.36769e+00   0.00000e+00 
   @RHF iter   2:  -230.69154005819630   -1.18070e+01   2.81899e-01 DIIS
   @RHF iter   3:  -239.06805898277312   -8.37652e+00   6.32154e-02 DIIS
   @RHF iter   4:  -239.82284033340230   -7.54781e-01   6.46070e-03 DIIS
   @RHF iter   5:  -244.97014961297415   -5.14731e+00   1.71207e-01 DIIS
   @RHF iter   6:  -242.93694392481123    2.03321e+00   1.70707e-01 DIIS
   @RHF iter   7:  -243.08191228144611   -1.44968e-01   2.50277e-03 DIIS
   @RHF iter   8:  -243.13650875354764   -5.45965e-02   1.37833e-03 DIIS
   @RHF iter   9:  -243.14226805155434   -5.75930e-03   9.95643e-04 DIIS
   @RHF iter  10:  -267.57286000487829   -2.44306e+01   1.44281e-01 DIIS
   @RHF iter  11:  -267.58340892048454   -1.05489e-02   1.79379e-03 DIIS
   @RHF iter  12:  -267.59522455404078   -1.18156e-02   1.27688e-03 DIIS
   @RHF iter  13:  -267.61148398912007   -1.62594e-02   2.77836e-03 DIIS
   @RHF iter  14:  -267.61334015740874   -1.85617e-03   9.12103e-04 DIIS
   @RHF iter  15:  -267.61347503987395   -1.34882e-04   3.61042e-04 DIIS
   @RHF iter  16:  -267.61347991051127   -4.87064e-06   7.67349e-05 DIIS
   @RHF iter  17:  -267.61348040612870   -4.95617e-07   1.75779e-05 DIIS
   @RHF iter  18:  -267.61348041900351   -1.28748e-08   7.19700e-06 DIIS
   @RHF iter  19:  -267.61348043460896   -1.56055e-08   3.50769e-06 DIIS
   @RHF iter  20:  -267.61348043512794   -5.18980e-10   7.92584e-07 DIIS
   @RHF iter  21:  -267.61348043519388   -6.59384e-11   2.88233e-07 DIIS
   @RHF iter  22:  -267.61348043520309   -9.20863e-12   1.37570e-07 DIIS
   @RHF iter  23:  -267.61348043520320   -1.13687e-13   1.15091e-08 DIIS

  ==> Post-Iterations <==

	Orbital Energies (a.u.)
	-----------------------

	Doubly Occupied:                                                      

	   1A    -11.029469     2A    -11.029168     3A    -11.029168  
	   4A    -11.029123     5A    -11.028867     6A    -11.028867  
	   7A    -11.028748     8A     -1.082007     9A     -0.949078  
	  10A     -0.949078    11A     -0.901958    12A     -0.762154  
	  13A     -0.762154    14A     -0.654812    15A     -0.591937  
	  16A     -0.547467    17A     -0.529547    18A     -0.529547  
	  19A     -0.512473    20A     -0.512473    21A     -0.512114  
	  22A     -0.449669    23A     -0.430200    24A     -0.430199  
	  25A     -0.275965    26A     -0.275964  

	Virtual:                                                              

	  27A      0.266200    28A      0.266200    29A      0.496636  
	  30A      0.571390    31A      0.640866    32A      0.640866  
	  33A      0.702288    34A      0.706267    35A      0.706268  
	  36A      0.706649    37A      0.718181    38A      0.718181  
	  39A      0.738069    40A      0.871838    41A      0.871839  
	  42A      0.882693    43A      0.882693    44A      1.070405  
	  45A      1.129618  

	Final Occupation by Irrep:
	          A 
	DOCC [    26 ]

  Energy converged.

  @RHF Final Energy:  -267.61348043520320

   => Energetics <=

    Nuclear Repulsion Energy =        250.9945506384759994
    One-Electron Energy =            -859.4916536860176848
    Two-Electron Energy =             340.8836226123383994
    DFT Functional Energy =             0.0000000000000000
    Empirical Dispersion Energy =       0.0000000000000000
    Total Energy =                   -267.6134804352033143

  ==> Properties <==

  Nuclear Dipole Moment: (a.u.)
     X:    -0.0000      Y:     0.0000      Z:   -12.9144

  Electronic Dipole Moment: (a.u.)
     X:     0.0000      Y:    -0.0000      Z:    12.9176

  Dipole Moment: (a.u.)
     X:     0.0000      Y:    -0.0000      Z:     0.0032     Total:     0.0032

  Dipole Moment: (Debye)
     X:     0.0000      Y:    -0.0000      Z:     0.0081     Total:     0.0081


  Saving occupied orbitals to File 180.

  Saving SAPT 2-MONOMER_B file.

*** tstop() called on lawn-143-215-103-161.lawn.gatech.edu at Fri Apr 27 14:40:01 2012
Module time:
	user time   =       4.49 seconds =       0.07 minutes
	system time =       0.14 seconds =       0.00 minutes
	total time  =          4 seconds =       0.07 minutes
Total time:
	user time   =       6.26 seconds =       0.10 minutes
	system time =       0.30 seconds =       0.01 minutes
	total time  =          6 seconds =       0.10 minutes


  Variable Map:
  ----------------------------------------------------------------------------
  "CURRENT ENERGY"                          =>    -267.613480435203
  "CURRENT REFERENCE ENERGY"                =>    -267.613480435203
  "NATOM"                                   =>      17.000000000000
  "NUCLEAR REPULSION ENERGY"                =>     250.994550638476
  "ONE-ELECTRON ENERGY"                     =>    -859.491653686018
  "S22 DATABASE MEAN ABSOLUTE DEVIATION"    =>       2.105857435777
  "S22 DATABASE MEAN SIGNED DEVIATION"      =>       2.105857435777
  "S22 DATABASE ROOT-MEAN-SQUARE DEVIATION" =>       2.494062720775
  "SAPT CT ENERGY"                          =>      -0.000002652772
  "SAPT DISP ENERGY"                        =>      -0.000108297263
  "SAPT ELST ENERGY"                        =>      -0.000128747367
  "SAPT ENERGY"                             =>       0.000381749741
  "SAPT EXCH ENERGY"                        =>       0.000641792204
  "SAPT IND ENERGY"                         =>      -0.000022997833
  "SAPT SAPT0 ENERGY"                       =>       0.000381749741
  "SAPT SCS-DISP ENERGY"                    =>      -0.000083324031
  "SAPT SCS-SAPT0 ENERGY"                   =>       0.000406722973
  "SCF DIPOLE X"                            =>       0.000000032252
  "SCF DIPOLE Y"                            =>      -0.000000477053
  "SCF DIPOLE Z"                            =>       0.008133640698
  "SCF ITERATION ENERGY"                    =>    -267.613480435203
  "SCF TOTAL ENERGY"                        =>    -267.613480435203
  "TWO-ELECTRON ENERGY"                     =>     340.883622612338


   Database Contributions Map:
   ---------------------------------------------------------------------------
   reagent NBC1-BzMe-6.0-dimer contributes by 1.0000 to reaction NBC1-BzMe-6.0


  //>>>>>>>>>>>>>>>>>>>>>>>>>>>>>>>>>>>>>>>>>>>>>>>>>>>>>>>>>>>>//
  // Database NBC10 Computation: Reagent NBC1-BzMe-6.0-monoA-CP //
  //             Benzene from Benzene-Methane at 6.0 A          //
  //<<<<<<<<<<<<<<<<<<<<<<<<<<<<<<<<<<<<<<<<<<<<<<<<<<<<<<<<<<<<//


  Memory set to 250.000 MiB by Python script.

*** tstart() called on lawn-143-215-103-161.lawn.gatech.edu
*** at Fri Apr 27 14:40:01 2012


         ---------------------------------------------------------
                                   SCF
            by Justin Turney, Rob Parrish, and Andy Simmonett
                              RHF Reference
                        1 Threads,    250 MiB Core
         ---------------------------------------------------------

  ==> Geometry <==

    Molecular point group: c1

    Geometry (in Angstrom), charge = 0, multiplicity = 1:

       Center              X                  Y                   Z       
    ------------   -----------------  -----------------  -----------------
           C          1.405730861734     0.000000000000     1.022423359722
           C          0.702864861734     1.217399000000     1.022423359722
           C         -0.702865138266     1.217399000000     1.022423359722
           C         -1.405731138266     0.000000000000     1.022423359722
           C         -0.702865138266    -1.217399000000     1.022423359722
           C          0.702865861734    -1.217399000000     1.022423359722
           H          2.500940861734     0.000000000000     1.022423359722
           H          1.250470861734     2.165878000000     1.022423359722
           H         -1.250470138266     2.165878000000     1.022423359722
           H         -2.500941138266     0.000000000000     1.022423359722
           H         -1.250470138266    -2.165878000000     1.022423359722
           H          1.250470861734    -2.165878000000     1.022423359722
           C(Gh)     -0.000000138266     0.000000000000    -4.977576640278
           H(Gh)     -0.000000138266     0.000000000000    -3.878073640278
           H(Gh)      1.036620861734     0.000000000000    -5.344077640278
           H(Gh)     -0.518311138266    -0.897741000000    -5.344077640278
           H(Gh)     -0.518311138266     0.897741000000    -5.344077640278

  Running in c1 symmetry.

  Nuclear repulsion =  201.838537741393765

  Charge       = 0
  Multiplicity = 1
  Electrons    = 42
  Nalpha       = 21
  Nbeta        = 21

  ==> Algorithm <==

  SCF Algorithm Type is DF.
  DIIS enabled.
  MOM disabled.
  Fractional occupation disabled.
  Guess Type is CORE.
  Energy threshold   = 1.00e-06
  Density threshold  = 1.00e-08
  Integral threshold = 0.00e+00

  ==> Primary Basis <==

  Basis Set: STO-3G
    Number of shells: 31
    Number of basis function: 45
    Number of Cartesian functions: 45
    Spherical Harmonics?: true
    Max angular momentum: 1

  ==> Pre-Iterations <==

  Minimum eigenvalue in the overlap matrix is 1.7731042128E-01.
  Using Symmetric Orthogonalization.
  SCF Guess: Core (One-Electron) Hamiltonian.

  Initial RHF energy:  -167.68136314328976

   -------------------------------------------------------
    Irrep   Nso     Nmo     Nalpha   Nbeta   Ndocc  Nsocc
   -------------------------------------------------------
     A         45      45      21      21      21       0
   -------------------------------------------------------
    Total      45      45      21      21      21       0
   -------------------------------------------------------

  ==> Integral Setup <==

  ==> DFJK: Density-Fitted J/K Matrices <==

    J tasked:                  Yes
    K tasked:                  Yes
    wK tasked:                  No
    OpenMP threads:              1
    Integrals threads:           1
    Memory (MB):               178
    Algorithm:                Core
    Integral Cache:           NONE
    Schwarz Cutoff:          0E+00
    Fitting Condition:       1E-12

   => Auxiliary Basis Set <=

  Basis Set: CC-PVDZ-JKFIT
    Number of shells: 258
    Number of basis function: 720
    Number of Cartesian functions: 817
    Spherical Harmonics?: true
    Max angular momentum: 3

  ==> Iterations <==

                        Total Energy        Delta E     Density RMS

   @RHF iter   1:  -207.93613294693395   -4.02548e+01   0.00000e+00 
   @RHF iter   2:  -221.45242021049174   -1.35163e+01   2.25975e-01 DIIS
   @RHF iter   3:  -227.17797805835770   -5.72556e+00   4.56258e-02 DIIS
   @RHF iter   4:  -227.82034764831266   -6.42370e-01   1.95606e-02 DIIS
   @RHF iter   5:  -227.88591208765516   -6.55644e-02   6.57649e-03 DIIS
   @RHF iter   6:  -227.88726747439537   -1.35539e-03   1.24365e-03 DIIS
   @RHF iter   7:  -227.88748552477946   -2.18050e-04   4.49678e-04 DIIS
   @RHF iter   8:  -227.88748835037163   -2.82559e-06   4.72428e-05 DIIS
   @RHF iter   9:  -227.88748859338719   -2.43016e-07   1.37809e-05 DIIS
   @RHF iter  10:  -227.88748862811136   -3.47242e-08   6.54971e-06 DIIS
   @RHF iter  11:  -227.88748862921872   -1.10737e-09   1.14827e-06 DIIS
   @RHF iter  12:  -227.88748862922435   -5.62750e-12   7.05549e-08 DIIS
   @RHF iter  13:  -227.88748862922480   -4.54747e-13   1.17680e-08 DIIS

  ==> Post-Iterations <==

	Orbital Energies (a.u.)
	-----------------------

	Doubly Occupied:                                                      

	   1A    -11.029055     2A    -11.029055     3A    -11.029010  
	   4A    -11.028754     5A    -11.028754     6A    -11.028635  
	   7A     -1.081871     8A     -0.948954     9A     -0.948953  
	  10A     -0.762042    11A     -0.762042    12A     -0.654699  
	  13A     -0.591838    14A     -0.547350    15A     -0.529434  
	  16A     -0.529433    17A     -0.449530    18A     -0.430091  
	  19A     -0.430091    20A     -0.275829    21A     -0.275829  

	Virtual:                                                              

	  22A      0.266330    23A      0.266330    24A      0.364868  
	  25A      0.496763    26A      0.571486    27A      0.640970  
	  28A      0.640970    29A      0.702394    30A      0.718294  
	  31A      0.718295    32A      0.864400    33A      0.864401  
	  34A      0.865318    35A      0.871955    36A      0.871956  
	  37A      0.882807    38A      0.882807    39A      1.070520  
	  40A      1.129745    41A      1.511459    42A      2.212582  
	  43A      2.212582    44A      2.212856    45A     17.605984  

	Final Occupation by Irrep:
	          A 
	DOCC [    21 ]

  Energy converged.

  @RHF Final Energy:  -227.88748862922480

   => Energetics <=

    Nuclear Repulsion Energy =        201.8385377413937647
    One-Electron Energy =            -708.6695561278716013
    Two-Electron Energy =             278.9435297572530317
    DFT Functional Energy =             0.0000000000000000
    Empirical Dispersion Energy =       0.0000000000000000
    Total Energy =                   -227.8874886292247766

  ==> Properties <==

  Nuclear Dipole Moment: (a.u.)
     X:     0.0000      Y:     0.0000      Z:    81.1482

  Electronic Dipole Moment: (a.u.)
     X:    -0.0000      Y:    -0.0000      Z:   -81.1482

  Dipole Moment: (a.u.)
     X:    -0.0000      Y:    -0.0000      Z:     0.0000     Total:     0.0000

  Dipole Moment: (Debye)
     X:    -0.0000      Y:    -0.0000      Z:     0.0000     Total:     0.0000


  Saving occupied orbitals to File 180.

  Saving SAPT 2-MONOMER_B file.

*** tstop() called on lawn-143-215-103-161.lawn.gatech.edu at Fri Apr 27 14:40:04 2012
Module time:
	user time   =       3.68 seconds =       0.06 minutes
	system time =       0.09 seconds =       0.00 minutes
	total time  =          3 seconds =       0.05 minutes
Total time:
	user time   =       9.95 seconds =       0.17 minutes
	system time =       0.39 seconds =       0.01 minutes
	total time  =          9 seconds =       0.15 minutes


  Variable Map:
  ----------------------------------------------------------------------------
  "CURRENT ENERGY"                          =>    -227.887488629225
  "CURRENT REFERENCE ENERGY"                =>    -227.887488629225
  "NATOM"                                   =>      17.000000000000
  "NUCLEAR REPULSION ENERGY"                =>     201.838537741394
  "ONE-ELECTRON ENERGY"                     =>    -708.669556127872
  "S22 DATABASE MEAN ABSOLUTE DEVIATION"    =>       2.105857435777
  "S22 DATABASE MEAN SIGNED DEVIATION"      =>       2.105857435777
  "S22 DATABASE ROOT-MEAN-SQUARE DEVIATION" =>       2.494062720775
  "SAPT CT ENERGY"                          =>      -0.000002652772
  "SAPT DISP ENERGY"                        =>      -0.000108297263
  "SAPT ELST ENERGY"                        =>      -0.000128747367
  "SAPT ENERGY"                             =>       0.000381749741
  "SAPT EXCH ENERGY"                        =>       0.000641792204
  "SAPT IND ENERGY"                         =>      -0.000022997833
  "SAPT SAPT0 ENERGY"                       =>       0.000381749741
  "SAPT SCS-DISP ENERGY"                    =>      -0.000083324031
  "SAPT SCS-SAPT0 ENERGY"                   =>       0.000406722973
  "SCF DIPOLE X"                            =>      -0.000000085693
  "SCF DIPOLE Y"                            =>      -0.000000357996
  "SCF DIPOLE Z"                            =>       0.000003069932
  "SCF ITERATION ENERGY"                    =>    -227.887488629225
  "SCF TOTAL ENERGY"                        =>    -227.887488629225
  "TWO-ELECTRON ENERGY"                     =>     278.943529757253


   Database Contributions Map:
   ---------------------------------------------------------------------------
   reagent NBC1-BzMe-6.0-monoA-CP contributes by -1.0000 to reaction NBC1-BzMe-6.0


  //>>>>>>>>>>>>>>>>>>>>>>>>>>>>>>>>>>>>>>>>>>>>>>>>>>>>>>>>>>>>//
  // Database NBC10 Computation: Reagent NBC1-BzMe-6.0-monoB-CP //
  //             Methane from Benzene-Methane at 6.0 A          //
  //<<<<<<<<<<<<<<<<<<<<<<<<<<<<<<<<<<<<<<<<<<<<<<<<<<<<<<<<<<<<//


  Memory set to 250.000 MiB by Python script.

*** tstart() called on lawn-143-215-103-161.lawn.gatech.edu
*** at Fri Apr 27 14:40:04 2012


         ---------------------------------------------------------
                                   SCF
            by Justin Turney, Rob Parrish, and Andy Simmonett
                              RHF Reference
                        1 Threads,    250 MiB Core
         ---------------------------------------------------------

  ==> Geometry <==

    Molecular point group: c1

    Geometry (in Angstrom), charge = 0, multiplicity = 1:

       Center              X                  Y                   Z       
    ------------   -----------------  -----------------  -----------------
           C(Gh)      1.405730861734     0.000000000000     1.022423359722
           C(Gh)      0.702864861734     1.217399000000     1.022423359722
           C(Gh)     -0.702865138266     1.217399000000     1.022423359722
           C(Gh)     -1.405731138266     0.000000000000     1.022423359722
           C(Gh)     -0.702865138266    -1.217399000000     1.022423359722
           C(Gh)      0.702865861734    -1.217399000000     1.022423359722
           H(Gh)      2.500940861734     0.000000000000     1.022423359722
           H(Gh)      1.250470861734     2.165878000000     1.022423359722
           H(Gh)     -1.250470138266     2.165878000000     1.022423359722
           H(Gh)     -2.500941138266     0.000000000000     1.022423359722
           H(Gh)     -1.250470138266    -2.165878000000     1.022423359722
           H(Gh)      1.250470861734    -2.165878000000     1.022423359722
           C         -0.000000138266     0.000000000000    -4.977576640278
           H         -0.000000138266     0.000000000000    -3.878073640278
           H          1.036620861734     0.000000000000    -5.344077640278
           H         -0.518311138266    -0.897741000000    -5.344077640278
           H         -0.518311138266     0.897741000000    -5.344077640278

  Running in c1 symmetry.

  Nuclear repulsion =   13.319264567859044

  Charge       = 0
  Multiplicity = 1
  Electrons    = 10
  Nalpha       = 5
  Nbeta        = 5

  ==> Algorithm <==

  SCF Algorithm Type is DF.
  DIIS enabled.
  MOM disabled.
  Fractional occupation disabled.
  Guess Type is CORE.
  Energy threshold   = 1.00e-06
  Density threshold  = 1.00e-08
  Integral threshold = 0.00e+00

  ==> Primary Basis <==

  Basis Set: STO-3G
    Number of shells: 31
    Number of basis function: 45
    Number of Cartesian functions: 45
    Spherical Harmonics?: true
    Max angular momentum: 1

  ==> Pre-Iterations <==

  Minimum eigenvalue in the overlap matrix is 1.7731042128E-01.
  Using Symmetric Orthogonalization.
  SCF Guess: Core (One-Electron) Hamiltonian.

  Initial RHF energy:   -29.18305140438694

   -------------------------------------------------------
    Irrep   Nso     Nmo     Nalpha   Nbeta   Ndocc  Nsocc
   -------------------------------------------------------
     A         45      45       5       5       5       0
   -------------------------------------------------------
    Total      45      45       5       5       5       0
   -------------------------------------------------------

  ==> Integral Setup <==

  ==> DFJK: Density-Fitted J/K Matrices <==

    J tasked:                  Yes
    K tasked:                  Yes
    wK tasked:                  No
    OpenMP threads:              1
    Integrals threads:           1
    Memory (MB):               178
    Algorithm:                Core
    Integral Cache:           NONE
    Schwarz Cutoff:          0E+00
    Fitting Condition:       1E-12

   => Auxiliary Basis Set <=

  Basis Set: CC-PVDZ-JKFIT
    Number of shells: 258
    Number of basis function: 720
    Number of Cartesian functions: 817
    Spherical Harmonics?: true
    Max angular momentum: 3

  ==> Iterations <==

                        Total Energy        Delta E     Density RMS

   @RHF iter   1:   -36.07103192734466   -6.88798e+00   0.00000e+00 
   @RHF iter   2:   -39.54237919970284   -3.47135e+00   7.09374e-02 DIIS
   @RHF iter   3:   -39.72446683499056   -1.82088e-01   1.01450e-02 DIIS
   @RHF iter   4:   -39.72595699799744   -1.49016e-03   1.06170e-03 DIIS
   @RHF iter   5:   -39.72597221338539   -1.52154e-05   1.19513e-04 DIIS
   @RHF iter   6:   -39.72597259680710   -3.83422e-07   1.60730e-05 DIIS
   @RHF iter   7:   -39.72597259685055   -4.34568e-11   1.92949e-07 DIIS
   @RHF iter   8:   -39.72597259685131   -7.53175e-13   2.15504e-08 DIIS

  ==> Post-Iterations <==

	Orbital Energies (a.u.)
	-----------------------

	Doubly Occupied:                                                      

	   1A    -11.031180     2A     -0.903631     3A     -0.514035  
	   4A     -0.514035     5A     -0.514035  

	Virtual:                                                              

	   6A      0.256857     7A      0.383003     8A      0.383003  
	   9A      0.584382    10A      0.584383    11A      0.704700  
	  12A      0.704700    13A      0.704701    14A      0.726214  
	  15A      0.736362    16A      0.784430    17A      0.947593  
	  18A      0.947593    19A      1.087875    20A      1.146849  
	  21A      1.146849    22A      1.300936    23A      1.323158  
	  24A      1.323159    25A      1.492062    26A      1.770670  
	  27A      1.816176    28A      1.816176    29A      1.926649  
	  30A      1.926649    31A      2.099715    32A      2.099715  
[...]


  Variable Map:
  ----------------------------------------------------------------------------
  "CURRENT ENERGY"                          =>     -39.725972596851
  "CURRENT REFERENCE ENERGY"                =>     -39.725972596851
  "NATOM"                                   =>      17.000000000000
  "NUCLEAR REPULSION ENERGY"                =>      13.319264567859
  "ONE-ELECTRON ENERGY"                     =>     -79.136644054295
  "S22 DATABASE MEAN ABSOLUTE DEVIATION"    =>       2.105857435777
  "S22 DATABASE MEAN SIGNED DEVIATION"      =>       2.105857435777
  "S22 DATABASE ROOT-MEAN-SQUARE DEVIATION" =>       2.494062720775
  "SAPT CT ENERGY"                          =>      -0.000002652772
  "SAPT DISP ENERGY"                        =>      -0.000108297263
  "SAPT ELST ENERGY"                        =>      -0.000128747367
  "SAPT ENERGY"                             =>       0.000381749741
  "SAPT EXCH ENERGY"                        =>       0.000641792204
  "SAPT IND ENERGY"                         =>      -0.000022997833
  "SAPT SAPT0 ENERGY"                       =>       0.000381749741
  "SAPT SCS-DISP ENERGY"                    =>      -0.000083324031
  "SAPT SCS-SAPT0 ENERGY"                   =>       0.000406722973
  "SCF DIPOLE X"                            =>       0.000000134604
  "SCF DIPOLE Y"                            =>      -0.000000000002
  "SCF DIPOLE Z"                            =>      -0.000000579570
  "SCF ITERATION ENERGY"                    =>     -39.725972596851
  "SCF TOTAL ENERGY"                        =>     -39.725972596851
  "TWO-ELECTRON ENERGY"                     =>      26.091406889584


   Database Contributions Map:
   ---------------------------------------------------------------------------
   reagent NBC1-BzMe-6.0-monoB-CP contributes by -1.0000 to reaction NBC1-BzMe-6.0


  //>>>>>>>>>>>>>>>>>>>>>>>>>>>>>>>>>>>>>>>>>>>>>>>>>>>>>>>>>//
  // Database NBC10 Computation: Reagent NBC1-MeMe-5.0-dimer //
  //                   Methane Dimer at 5.0 A                //
  //<<<<<<<<<<<<<<<<<<<<<<<<<<<<<<<<<<<<<<<<<<<<<<<<<<<<<<<<<//


  Memory set to 250.000 MiB by Python script.

*** tstart() called on lawn-143-215-103-161.lawn.gatech.edu
*** at Fri Apr 27 14:40:07 2012


         ---------------------------------------------------------
                                   SCF
            by Justin Turney, Rob Parrish, and Andy Simmonett
                              RHF Reference
                        1 Threads,    250 MiB Core
         ---------------------------------------------------------

  ==> Geometry <==

    Molecular point group: c1

    Geometry (in Angstrom), charge = 0, multiplicity = 1:

       Center              X                  Y                   Z       
    ------------   -----------------  -----------------  -----------------
           C         -2.500000000000    -0.000000000000     0.000000000000
           H         -3.599503000000    -0.000000000000     0.000000000000
           H         -2.133499000000    -1.036621000000     0.000000000000
           H         -2.133499000000     0.518311000000    -0.897741000000
           H         -2.133499000000     0.518311000000     0.897741000000
           C          2.500000000000     0.000000000000     0.000000000000
           H          3.599503000000     0.000000000000     0.000000000000
           H          2.133499000000     1.036621000000     0.000000000000
           H          2.133499000000    -0.518311000000     0.897741000000
           H          2.133499000000    -0.518311000000    -0.897741000000

  Running in c1 symmetry.

  Nuclear repulsion =   37.178151865853827

  Charge       = 0
  Multiplicity = 1
  Electrons    = 20
  Nalpha       = 10
  Nbeta        = 10

  ==> Algorithm <==

  SCF Algorithm Type is DF.
  DIIS enabled.
  MOM disabled.
  Fractional occupation disabled.
  Guess Type is CORE.
  Energy threshold   = 1.00e-06
  Density threshold  = 1.00e-08
  Integral threshold = 0.00e+00

  ==> Primary Basis <==

  Basis Set: STO-3G
    Number of shells: 14
    Number of basis function: 18
    Number of Cartesian functions: 18
    Spherical Harmonics?: true
    Max angular momentum: 1

  ==> Pre-Iterations <==

  Minimum eigenvalue in the overlap matrix is 2.2607012348E-01.
  Using Symmetric Orthogonalization.
  SCF Guess: Core (One-Electron) Hamiltonian.

  Initial RHF energy:   -58.39160109691162

   -------------------------------------------------------
    Irrep   Nso     Nmo     Nalpha   Nbeta   Ndocc  Nsocc
   -------------------------------------------------------
     A         18      18      10      10      10       0
   -------------------------------------------------------
    Total      18      18      10      10      10       0
   -------------------------------------------------------

  ==> Integral Setup <==

  ==> DFJK: Density-Fitted J/K Matrices <==

    J tasked:                  Yes
    K tasked:                  Yes
    wK tasked:                  No
    OpenMP threads:              1
    Integrals threads:           1
    Memory (MB):               178
    Algorithm:                Core
    Integral Cache:           NONE
    Schwarz Cutoff:          0E+00
    Fitting Condition:       1E-12

   => Auxiliary Basis Set <=

  Basis Set: CC-PVDZ-JKFIT
    Number of shells: 120
    Number of basis function: 324
    Number of Cartesian functions: 362
    Spherical Harmonics?: true
    Max angular momentum: 3

  ==> Iterations <==

                        Total Energy        Delta E     Density RMS

   @RHF iter   1:   -72.14584223944851   -1.37542e+01   0.00000e+00 
   @RHF iter   2:   -79.08435430944581   -6.93851e+00   2.50766e-01 DIIS
   @RHF iter   3:   -79.44892555679229   -3.64571e-01   3.58870e-02 DIIS
   @RHF iter   4:   -79.45190760728133   -2.98205e-03   3.75471e-03 DIIS
   @RHF iter   5:   -79.45193810512498   -3.04978e-05   4.22992e-04 DIIS
   @RHF iter   6:   -79.45193887153650   -7.66412e-07   5.68879e-05 DIIS
   @RHF iter   7:   -79.45193887161463   -7.81313e-11   7.12692e-07 DIIS
   @RHF iter   8:   -79.45193887161841   -3.78009e-12   1.40976e-07 DIIS
   @RHF iter   9:   -79.45193887161847   -5.68434e-14   1.42931e-08 DIIS

  ==> Post-Iterations <==

	Orbital Energies (a.u.)
	-----------------------

	Doubly Occupied:                                                      

	   1A    -11.030960     2A    -11.030959     3A     -0.903533  
	   4A     -0.903255     5A     -0.514108     6A     -0.513939  
	   7A     -0.513938     8A     -0.513663     9A     -0.513663  
	  10A     -0.513500  

	Virtual:                                                              

	  11A      0.704425    12A      0.704425    13A      0.704898  
	  14A      0.704950    15A      0.705434    16A      0.705435  
	  17A      0.735044    18A      0.738141  

	Final Occupation by Irrep:
	          A 
	DOCC [    10 ]

  Energy converged.

  @RHF Final Energy:   -79.45193887161847

   => Energetics <=

    Nuclear Repulsion Energy =         37.1781518658538275
    One-Electron Energy =            -179.3571459260678580
    Two-Electron Energy =              62.7270551885955641
    DFT Functional Energy =             0.0000000000000000
    Empirical Dispersion Energy =       0.0000000000000000
    Total Energy =                    -79.4519388716184665

  ==> Properties <==

  Nuclear Dipole Moment: (a.u.)
     X:    -0.0000      Y:     0.0000      Z:     0.0000

  Electronic Dipole Moment: (a.u.)
     X:     0.0000      Y:    -0.0000      Z:     0.0000

  Dipole Moment: (a.u.)
     X:     0.0000      Y:    -0.0000      Z:     0.0000     Total:     0.0000

  Dipole Moment: (Debye)
     X:     0.0000      Y:    -0.0000      Z:     0.0000     Total:     0.0000


  Saving occupied orbitals to File 180.

  Saving SAPT 2-MONOMER_B file.

*** tstop() called on lawn-143-215-103-161.lawn.gatech.edu at Fri Apr 27 14:40:08 2012
Module time:
	user time   =       0.32 seconds =       0.01 minutes
	system time =       0.02 seconds =       0.00 minutes
	total time  =          1 seconds =       0.02 minutes
Total time:
	user time   =      13.47 seconds =       0.22 minutes
	system time =       0.47 seconds =       0.01 minutes
	total time  =         13 seconds =       0.22 minutes


  Variable Map:
  ----------------------------------------------------------------------------
  "CURRENT ENERGY"                          =>     -79.451938871618
  "CURRENT REFERENCE ENERGY"                =>     -79.451938871618
  "NATOM"                                   =>      10.000000000000
  "NUCLEAR REPULSION ENERGY"                =>      37.178151865854
  "ONE-ELECTRON ENERGY"                     =>    -179.357145926068
  "S22 DATABASE MEAN ABSOLUTE DEVIATION"    =>       2.105857435777
  "S22 DATABASE MEAN SIGNED DEVIATION"      =>       2.105857435777
  "S22 DATABASE ROOT-MEAN-SQUARE DEVIATION" =>       2.494062720775
  "SAPT CT ENERGY"                          =>      -0.000002652772
  "SAPT DISP ENERGY"                        =>      -0.000108297263
  "SAPT ELST ENERGY"                        =>      -0.000128747367
  "SAPT ENERGY"                             =>       0.000381749741
  "SAPT EXCH ENERGY"                        =>       0.000641792204
  "SAPT IND ENERGY"                         =>      -0.000022997833
  "SAPT SAPT0 ENERGY"                       =>       0.000381749741
  "SAPT SCS-DISP ENERGY"                    =>      -0.000083324031
  "SAPT SCS-SAPT0 ENERGY"                   =>       0.000406722973
  "SCF DIPOLE X"                            =>       0.000000000001
  "SCF DIPOLE Y"                            =>      -0.000000000000
  "SCF DIPOLE Z"                            =>       0.000000000003
  "SCF ITERATION ENERGY"                    =>     -79.451938871618
  "SCF TOTAL ENERGY"                        =>     -79.451938871618
  "TWO-ELECTRON ENERGY"                     =>      62.727055188596


   Database Contributions Map:
   ---------------------------------------------------------------------------
   reagent NBC1-MeMe-5.0-dimer contributes by 1.0000 to reaction NBC1-MeMe-5.0


  //>>>>>>>>>>>>>>>>>>>>>>>>>>>>>>>>>>>>>>>>>>>>>>>>>>>>>>>>>>>>//
  // Database NBC10 Computation: Reagent NBC1-MeMe-5.0-monoA-CP //
  //              Methane from Methane Dimer at 5.0 A           //
  //<<<<<<<<<<<<<<<<<<<<<<<<<<<<<<<<<<<<<<<<<<<<<<<<<<<<<<<<<<<<//


  Memory set to 250.000 MiB by Python script.

*** tstart() called on lawn-143-215-103-161.lawn.gatech.edu
*** at Fri Apr 27 14:40:08 2012


         ---------------------------------------------------------
                                   SCF
            by Justin Turney, Rob Parrish, and Andy Simmonett
                              RHF Reference
                        1 Threads,    250 MiB Core
         ---------------------------------------------------------

  ==> Geometry <==

    Molecular point group: c1

    Geometry (in Angstrom), charge = 0, multiplicity = 1:

       Center              X                  Y                   Z       
    ------------   -----------------  -----------------  -----------------
           C         -2.500000000000    -0.000000000000     0.000000000000
           H         -3.599503000000    -0.000000000000     0.000000000000
           H         -2.133499000000    -1.036621000000     0.000000000000
           H         -2.133499000000     0.518311000000    -0.897741000000
           H         -2.133499000000     0.518311000000     0.897741000000
           C(Gh)      2.500000000000     0.000000000000     0.000000000000
           H(Gh)      3.599503000000     0.000000000000     0.000000000000
           H(Gh)      2.133499000000     1.036621000000     0.000000000000
           H(Gh)      2.133499000000    -0.518311000000     0.897741000000
           H(Gh)      2.133499000000    -0.518311000000    -0.897741000000

  Running in c1 symmetry.

  Nuclear repulsion =   13.319264567859046

  Charge       = 0
  Multiplicity = 1
  Electrons    = 10
  Nalpha       = 5
  Nbeta        = 5

  ==> Algorithm <==

  SCF Algorithm Type is DF.
  DIIS enabled.
  MOM disabled.
  Fractional occupation disabled.
  Guess Type is CORE.
  Energy threshold   = 1.00e-06
  Density threshold  = 1.00e-08
  Integral threshold = 0.00e+00

  ==> Primary Basis <==

  Basis Set: STO-3G
    Number of shells: 14
    Number of basis function: 18
    Number of Cartesian functions: 18
    Spherical Harmonics?: true
    Max angular momentum: 1

  ==> Pre-Iterations <==

  Minimum eigenvalue in the overlap matrix is 2.2607012348E-01.
  Using Symmetric Orthogonalization.
  SCF Guess: Core (One-Electron) Hamiltonian.

  Initial RHF energy:   -29.18305158398806

   -------------------------------------------------------
    Irrep   Nso     Nmo     Nalpha   Nbeta   Ndocc  Nsocc
   -------------------------------------------------------
     A         18      18       5       5       5       0
   -------------------------------------------------------
    Total      18      18       5       5       5       0
   -------------------------------------------------------

  ==> Integral Setup <==

  ==> DFJK: Density-Fitted J/K Matrices <==

    J tasked:                  Yes
    K tasked:                  Yes
    wK tasked:                  No
    OpenMP threads:              1
    Integrals threads:           1
    Memory (MB):               178
    Algorithm:                Core
    Integral Cache:           NONE
    Schwarz Cutoff:          0E+00
    Fitting Condition:       1E-12

   => Auxiliary Basis Set <=

  Basis Set: CC-PVDZ-JKFIT
    Number of shells: 120
    Number of basis function: 324
    Number of Cartesian functions: 362
    Spherical Harmonics?: true
    Max angular momentum: 3

  ==> Iterations <==

                        Total Energy        Delta E     Density RMS

   @RHF iter   1:   -36.07103162604869   -6.88798e+00   0.00000e+00 
   @RHF iter   2:   -39.54237478023052   -3.47134e+00   1.77344e-01 DIIS
   @RHF iter   3:   -39.72446739739080   -1.82093e-01   2.53626e-02 DIIS
   @RHF iter   4:   -39.72595759064567   -1.49019e-03   2.65420e-03 DIIS
   @RHF iter   5:   -39.72597280441340   -1.52138e-05   2.98757e-04 DIIS
   @RHF iter   6:   -39.72597318765224   -3.83239e-07   4.01726e-05 DIIS
   @RHF iter   7:   -39.72597318769609   -4.38547e-11   4.77741e-07 DIIS
   @RHF iter   8:   -39.72597318769660   -5.11591e-13   4.94478e-08 DIIS

  ==> Post-Iterations <==

	Orbital Energies (a.u.)
	-----------------------

	Doubly Occupied:                                                      

	   1A    -11.031180     2A     -0.903631     3A     -0.514035  
	   4A     -0.514035     5A     -0.514035  

	Virtual:                                                              

	   6A      0.363461     7A      0.704698     8A      0.704698  
	   9A      0.704700    10A      0.736353    11A      0.863225  
	  12A      0.863295    13A      0.863295    14A      1.510023  
	  15A      2.211253    16A      2.211254    17A      2.211270  
	  18A     17.604591  

	Final Occupation by Irrep:
	          A 
	DOCC [     5 ]

  Energy converged.

  @RHF Final Energy:   -39.72597318769660

   => Energetics <=

    Nuclear Repulsion Energy =         13.3192645678590456
    One-Electron Energy =             -79.1366400665259704
    Two-Electron Energy =              26.0914023109703308
    DFT Functional Energy =             0.0000000000000000
    Empirical Dispersion Energy =       0.0000000000000000
    Total Energy =                    -39.7259731876965887

  ==> Properties <==

  Nuclear Dipole Moment: (a.u.)
     X:   -47.2432      Y:     0.0000      Z:     0.0000

  Electronic Dipole Moment: (a.u.)
     X:    47.2431      Y:    -0.0000      Z:     0.0000

  Dipole Moment: (a.u.)
     X:    -0.0000      Y:    -0.0000      Z:     0.0000     Total:     0.0000

  Dipole Moment: (Debye)
     X:    -0.0000      Y:    -0.0000      Z:     0.0000     Total:     0.0000


  Saving occupied orbitals to File 180.

  Saving SAPT 2-MONOMER_B file.

*** tstop() called on lawn-143-215-103-161.lawn.gatech.edu at Fri Apr 27 14:40:08 2012
Module time:
	user time   =       0.31 seconds =       0.01 minutes
	system time =       0.01 seconds =       0.00 minutes
	total time  =          0 seconds =       0.00 minutes
Total time:
	user time   =      13.79 seconds =       0.23 minutes
	system time =       0.48 seconds =       0.01 minutes
	total time  =         13 seconds =       0.22 minutes


  Variable Map:
  ----------------------------------------------------------------------------
  "CURRENT ENERGY"                          =>     -39.725973187697
  "CURRENT REFERENCE ENERGY"                =>     -39.725973187697
  "NATOM"                                   =>      10.000000000000
  "NUCLEAR REPULSION ENERGY"                =>      13.319264567859
  "ONE-ELECTRON ENERGY"                     =>     -79.136640066526
  "S22 DATABASE MEAN ABSOLUTE DEVIATION"    =>       2.105857435777
  "S22 DATABASE MEAN SIGNED DEVIATION"      =>       2.105857435777
  "S22 DATABASE ROOT-MEAN-SQUARE DEVIATION" =>       2.494062720775
  "SAPT CT ENERGY"                          =>      -0.000002652772
  "SAPT DISP ENERGY"                        =>      -0.000108297263
  "SAPT ELST ENERGY"                        =>      -0.000128747367
  "SAPT ENERGY"                             =>       0.000381749741
  "SAPT EXCH ENERGY"                        =>       0.000641792204
  "SAPT IND ENERGY"                         =>      -0.000022997833
  "SAPT SAPT0 ENERGY"                       =>       0.000381749741
  "SAPT SCS-DISP ENERGY"                    =>      -0.000083324031
  "SAPT SCS-SAPT0 ENERGY"                   =>       0.000406722973
  "SCF DIPOLE X"                            =>      -0.000028920632
  "SCF DIPOLE Y"                            =>      -0.000000134603
  "SCF DIPOLE Z"                            =>       0.000000000000
  "SCF ITERATION ENERGY"                    =>     -39.725973187697
  "SCF TOTAL ENERGY"                        =>     -39.725973187697
  "TWO-ELECTRON ENERGY"                     =>      26.091402310970


   Database Contributions Map:
   ---------------------------------------------------------------------------
   reagent NBC1-MeMe-5.0-monoA-CP contributes by -2.0000 to reaction NBC1-MeMe-5.0


  //>>>>>>>>>>>>>>>>>>>>>>>>>>>>>>>>>>>//
  //       Database NBC10 Results      //
  //<<<<<<<<<<<<<<<<<<<<<<<<<<<<<<<<<<<//

   For each VARIABLE requested by tabulate, a 'Reaction Value' will be formed from
   'Reagent' values according to weightings 'Wt', as for the REQUESTED ENERGY below.
   Depending on the nature of the variable, this may or may not make any physical sense.

   ==> Requested Energy <==

   ------------------------------------------------------------------------------------------------------------------
               Reaction     Reaction Energy      Error           Reagent 1           Reagent 2           Reagent 3
                               Ref     Calc [kcal/mol]              [H] Wt              [H] Wt              [H] Wt
   ------------------------------------------------------------------------------------------------------------------
          NBC1-BzMe-6.0    -0.1770  -0.0121     0.1649    -267.61348044  1    -227.88748863 -1     -39.72597260 -1
          NBC1-MeMe-5.0    -0.1300   0.0047     0.1347     -79.45193887  1     -39.72597319 -2
   ------------------------------------------------------------------------------------------------------------------
            Minimal Dev                         0.1347
            Maximal Dev                         0.1649
        Mean Signed Dev                         0.1498
      Mean Absolute Dev                         0.1498
                RMS Dev                         0.1506
   ------------------------------------------------------------------------------------------------------------------

*** PSI4 exiting successfully. Buy a developer a beer!
