    -----------------------------------------------------------------------
          PSI4: An Open-Source Ab Initio Electronic Structure Package
                              PSI 4.0.0-beta1 Driver

               Git: Rev 8268e5ba0276eef671d5bc4a44cf66fa46407463

    J. M. Turney, A. C. Simmonett, R. M. Parrish, E. G. Hohenstein,
    F. A. Evangelista, J. T. Fermann, B. J. Mintz, L. A. Burns, J. J. Wilke,
    M. L. Abrams, N. J. Russ, M. L. Leininger, C. L. Janssen, E. T. Seidl,
    W. D. Allen, H. F. Schaefer, R. A. King, E. F. Valeev, C. D. Sherrill,
    and T. D. Crawford, WIREs Comput. Mol. Sci., (2011) (doi: 10.1002/wcms.93)

                         Additional Contributions by
    A. E. DePrince, M. Saitow, U. Bozkaya, A. Yu. Sokolov
    -----------------------------------------------------------------------


    Using LocalCommunicator (Number of processes = 1)

    Memory level set to 256.000 MB

  ==> Input File <==

--------------------------------------------------------------------------
#! RHF CCSD(T) STO-3G frozen-core energy of C4NH4 Anion

memory 250 mb

molecule C4NH4 {
  -1 1
  C         0.00000000     0.00000000     2.13868804
  N         0.00000000     0.00000000     4.42197911
  C         0.00000000     0.00000000    -0.46134192
  C        -1.47758582     0.00000000    -2.82593059
  C         1.47758582     0.00000000    -2.82593059
  H        -2.41269553    -1.74021190    -3.52915989
  H        -2.41269553     1.74021190    -3.52915989
  H         2.41269553     1.74021190    -3.52915989
  H         2.41269553    -1.74021190    -3.52915989
  units bohr
}

set globals {
  docc        [10, 1, 4, 3]
  basis       cc-pVDZ
  freeze_core true
  r_convergence 10
  e_convergence  10
}

energy('ccsd(t)')

refnuc   =  135.092128488419604 #TEST
refscf   = -208.153697555165110 #TEST
refccsd  =   -0.731388084971396 #TEST
ref_t    =   -0.030675386522182 #TEST
reftotal = -208.915761026658572 #TEST

compare_values(refnuc,   C4NH4.nuclear_repulsion_energy(),        9, "Nuclear repulsion energy")  #TEST
compare_values(refscf,   get_variable("SCF total energy"),              9, "SCF energy")                   #TEST
compare_values(refccsd,  get_variable("CCSD correlation energy"), 9, "CCSD contribution")            #TEST
compare_values(ref_t,    get_variable("(T) correction energy"),   9, "(T) contribution")             #TEST
compare_values(reftotal, get_variable("Current energy"),          9, "Total energy")                 #TEST
--------------------------------------------------------------------------

  Memory set to 250.000 MiB by Python script.

*** tstart() called on lawn-143-215-103-161.lawn.gatech.edu
*** at Fri Apr 27 14:09:04 2012


         ---------------------------------------------------------
                                   SCF
            by Justin Turney, Rob Parrish, and Andy Simmonett
                              RHF Reference
                        1 Threads,    250 MiB Core
         ---------------------------------------------------------

  ==> Geometry <==

    Molecular point group: c2v

    Geometry (in Bohr), charge = -1, multiplicity = 1:

       Center              X                  Y                   Z       
    ------------   -----------------  -----------------  -----------------
           C          0.000000000000     0.000000000000     2.138687778202
           N          0.000000000000     0.000000000000     4.421978848202
           C          0.000000000000     0.000000000000    -0.461342181798
           C         -1.477585820000    -0.000000000000    -2.825930851798
           C          1.477585820000     0.000000000000    -2.825930851798
           H         -2.412695530000    -1.740211900000    -3.529160151798
           H         -2.412695530000     1.740211900000    -3.529160151798
           H          2.412695530000     1.740211900000    -3.529160151798
           H          2.412695530000    -1.740211900000    -3.529160151798

  Running in c2v symmetry.

  Nuclear repulsion =  135.092128488419604

  Charge       = -1
  Multiplicity = 1
  Electrons    = 36
  Nalpha       = 18
  Nbeta        = 18

  ==> Algorithm <==

  SCF Algorithm Type is PK.
  DIIS enabled.
  MOM disabled.
  Fractional occupation disabled.
  Guess Type is CORE.
  Energy threshold   = 1.00e-10
  Density threshold  = 1.00e-08
  Integral threshold = 0.00e+00

  ==> Primary Basis <==

  Basis Set: cc-pVDZ
    Number of shells: 42
    Number of basis function: 90
    Number of Cartesian functions: 95
    Spherical Harmonics?: true
    Max angular momentum: 2

  ==> Pre-Iterations <==

  Minimum eigenvalue in the overlap matrix is 1.0784772041E-03.
  Using Symmetric Orthogonalization.
  SCF Guess: Core (One-Electron) Hamiltonian.

  Initial RHF energy:  -163.95984798683961

   -------------------------------------------------------
    Irrep   Nso     Nmo     Nalpha   Nbeta   Ndocc  Nsocc
   -------------------------------------------------------
     A1        36      36      10      10      10       0
     A2        12      12       1       1       1       0
     B1        24      24       4       4       4       0
     B2        18      18       3       3       3       0
   -------------------------------------------------------
    Total      90      90      18      18      18       0
   -------------------------------------------------------

  ==> Integral Setup <==

 MINTS: Wrapper to libmints.
   by Justin Turney

   Calculation information:
      Number of atoms:                   9
      Number of AO shells:              42
      Number of SO shells:              27
      Number of primitives:            130
      Number of atomic orbitals:        95
      Number of basis functions:        90

      Number of irreps:                  4
      Number of functions per irrep: [  36   12   24   18 ]

      Overlap, kinetic, potential, dipole, and quadrupole integrals
        stored in file 35.

      Computing two-electron integrals...done
      Computed 2041646 non-zero two-electron integrals.
        Stored in file 33.

  ==> Iterations <==

                        Total Energy        Delta E     Density RMS

   @RHF iter   1:  -173.02990812614823   -9.07006e+00   0.00000e+00 
   @RHF iter   2:  -184.45862431301853   -1.14287e+01   1.24885e+00 DIIS
   @RHF iter   3:  -207.61075494413646   -2.31521e+01   1.25563e+00 DIIS
   @RHF iter   4:  -208.01209990130550   -4.01345e-01   1.71095e-02 DIIS
   @RHF iter   5:  -208.14091592800096   -1.28816e-01   7.56277e-03 DIIS
   @RHF iter   6:  -208.15252460254962   -1.16087e-02   3.08542e-03 DIIS
   @RHF iter   7:  -208.15352242775751   -9.97825e-04   1.26191e-03 DIIS
   @RHF iter   8:  -208.15367779289849   -1.55365e-04   3.86980e-04 DIIS
   @RHF iter   9:  -208.15369502305467   -1.72302e-05   1.96042e-04 DIIS
   @RHF iter  10:  -208.15369704727502   -2.02422e-06   4.83713e-05 DIIS
   @RHF iter  11:  -208.15369744683093   -3.99556e-07   1.88673e-05 DIIS
   @RHF iter  12:  -208.15369755057733   -1.03746e-07   1.19818e-05 DIIS
   @RHF iter  13:  -208.15369755494575   -4.36842e-09   2.57214e-06 DIIS
   @RHF iter  14:  -208.15369755515215   -2.06398e-10   6.07331e-07 DIIS
   @RHF iter  15:  -208.15369755516443   -1.22782e-11   1.92843e-07 DIIS
   @RHF iter  16:  -208.15369755516505   -6.25278e-13   4.01237e-08 DIIS

  ==> Post-Iterations <==

	Orbital Energies (a.u.)
	-----------------------

	Doubly Occupied:                                                      

	   1A1   -15.320904     2A1   -11.070098     1B1   -11.069592  
	   3A1   -11.066982     4A1   -11.001102     5A1    -0.955126  
	   6A1    -0.921297     7A1    -0.667532     2B1    -0.638626  
	   8A1    -0.492937     1B2    -0.448627     1A2    -0.331036  
	   9A1    -0.323566     3B1    -0.289294     2B2    -0.261084  
	  10A1    -0.241617     4B1    -0.182464     3B2    -0.055447  

	Virtual:                                                              

	  11A1     0.345941     4B2     0.373159     5B1     0.374079  
	   6B1     0.411220     2A2     0.447147     7B1     0.510571  
	   5B2     0.514937    12A1     0.518475    13A1     0.613118  
	   8B1     0.680882    14A1     0.692987    15A1     0.784011  
	   6B2     0.862563     9B1     0.883386    16A1     0.919707  
	   7B2     0.919890    17A1     0.929314    10B1     0.937015  
	   3A2     0.998247    11B1     1.002667     8B2     1.046658  
	   4A2     1.059810    12B1     1.060156    18A1     1.078249  
	   9B2     1.080386    19A1     1.132281    13B1     1.160574  
	  20A1     1.224382    10B2     1.327930    14B1     1.351773  
	  21A1     1.388445    11B2     1.439395    22A1     1.530477  
	   5A2     1.537840    23A1     1.579768     6A2     1.593471  
	  15B1     1.670902    24A1     1.672269    12B2     1.713413  
	  25A1     1.801431     7A2     1.831612    16B1     1.868441  
	  26A1     1.889550    13B2     1.974883     8A2     2.033041  
	  14B2     2.042497    17B1     2.052559    18B1     2.069126  
	  27A1     2.098202    28A1     2.115706    29A1     2.182176  
	  15B2     2.197374    19B1     2.311650    30A1     2.353131  
	   9A2     2.406855    20B1     2.412767    31A1     2.459559  
	  10A2     2.508080    16B2     2.579679    21B1     2.643804  
	  11A2     2.645639    32A1     2.646358    22B1     2.784794  
	  33A1     2.882316    34A1     2.952834    17B2     2.962743  
	  23B1     3.002065    12A2     3.164312    35A1     3.355988  
	  24B1     3.361645    18B2     3.363677    36A1     3.491024  

	Final Occupation by Irrep:
	         A1    A2    B1    B2 
	DOCC [    10,    1,    4,    3 ]

  Energy converged.

  @RHF Final Energy:  -208.15369755516505

   => Energetics <=

    Nuclear Repulsion Energy =        135.0921284884196041
    One-Electron Energy =            -555.8169822422606785
    Two-Electron Energy =             212.5711561986760216
    DFT Functional Energy =             0.0000000000000000
    Empirical Dispersion Energy =       0.0000000000000000
    Total Energy =                   -208.1536975551650812

  ==> Properties <==

  Nuclear Dipole Moment: (a.u.)
     X:     0.0000      Y:     0.0000      Z:    -7.0099

  Electronic Dipole Moment: (a.u.)
     X:     0.0000      Y:     0.0000      Z:     5.2752

  Dipole Moment: (a.u.)
     X:     0.0000      Y:     0.0000      Z:    -1.7347     Total:     1.7347

  Dipole Moment: (Debye)
     X:     0.0000      Y:     0.0000      Z:    -4.4091     Total:     4.4091


  Saving occupied orbitals to File 180.

*** tstop() called on lawn-143-215-103-161.lawn.gatech.edu at Fri Apr 27 14:09:09 2012
Module time:
	user time   =       4.23 seconds =       0.07 minutes
	system time =       0.11 seconds =       0.00 minutes
	total time  =          5 seconds =       0.08 minutes
Total time:
	user time   =       4.23 seconds =       0.07 minutes
	system time =       0.11 seconds =       0.00 minutes
	total time  =          5 seconds =       0.08 minutes

*** tstart() called on lawn-143-215-103-161.lawn.gatech.edu
*** at Fri Apr 27 14:09:09 2012


	**************************************************
	* TRANSQT2: Program to transform integrals from  *
	*           the SO basis to the MO basis.        *
	*                                                *
	*            Daniel, David, & Justin             *
	**************************************************


	Input parameters:
	-----------------
	Wave function   =	CCSD_T
	Backtransform   =	No
	Print Level     =	1
	Print TEIs      =	No
	Reference wfn   =	RHF
	Derivative      =	None
	Delete TEI File =	Yes
	Memory (Mbytes) =	250.0
	Cache Level     =	2
	Cache Type      =	LRU
	Chkpt Parameters:
	--------------------
	Number of irreps     = 4
	Number of SOs        = 90
	Number of MOs        = 90
	Number of active MOs = 85

	Label	# SOs	# FZDC	# DOCC	# SOCC	# VIRT	# FZVR
	-----	-----	------	------	------	------	------
	 A1	   36	    4	    6	    0	    26	    0
	 A2	   12	    0	    1	    0	    11	    0
	 B1	   24	    1	    3	    0	    20	    0
	 B2	   18	    0	    3	    0	    15	    0

	Nuclear Rep. energy (chkpt) =    135.09212848841960
	SCF energy          (chkpt) =   -208.15369755516505

	Presorting SO-basis two-electron integrals.
	Sorting File: SO Ints (pq,rs) nbuckets = 1
	Frozen-core energy = -240.515429603938628
	Starting first half-transformation.
	Sorting half-transformed integrals.
	Starting second half-transformation.
	Two-electron integral transformation complete.

*** tstop() called on lawn-143-215-103-161.lawn.gatech.edu at Fri Apr 27 14:09:13 2012
Module time:
	user time   =       1.44 seconds =       0.02 minutes
	system time =       0.46 seconds =       0.01 minutes
	total time  =          4 seconds =       0.07 minutes
Total time:
	user time   =       5.67 seconds =       0.09 minutes
	system time =       0.57 seconds =       0.01 minutes
	total time  =          9 seconds =       0.15 minutes

*** tstart() called on lawn-143-215-103-161.lawn.gatech.edu
*** at Fri Apr 27 14:09:13 2012


			**************************
			*                        *
			*         CCSORT         *
			*                        *
			**************************


	Input parameters:
	-----------------
	Wave function   =	CCSD_T
	Reference wfn   =	RHF
	Derivative      =	None
	Memory (Mbytes) =	250.0
	AO Basis        =	NONE
	Make (ab|cd)    =	True
	Make unpacked (ab|cd) =	False
	Cache Level     =	2
	Cache Type      =	LRU
	Local CC        =     No


	Chkpt Parameters:
	--------------------
	Number of irreps     = 4
	Number of MOs        = 90
	Number of active MOs = 85

	Label	# MOs	# FZDC	# DOCC	# SOCC	# VIRT	# FZVR
	-----	-----	------	------	------	------	------
	 A1	   36	    4	    6	    0	    26	    0
	 A2	   12	    0	    1	    0	    11	    0
	 B1	   24	    1	    3	    0	    20	    0
	 B2	   18	    0	    3	    0	    15	    0

	Nuclear Rep. energy (chkpt) =    135.09212848841960
	SCF energy          (chkpt) =   -208.15369755516505

	Size of irrep 0 of <ab|cd> integrals:      2.022 (MW) /     16.177 (MB)
	Size of irrep 1 of <ab|cd> integrals:      1.374 (MW) /     10.989 (MB)
	Size of irrep 2 of <ab|cd> integrals:      1.877 (MW) /     15.015 (MB)
	Size of irrep 3 of <ab|cd> integrals:      1.488 (MW) /     11.907 (MB)
	Total:                                     6.761 (MW) /     54.088 (MB)

	Size of irrep 0 of <ia|bc> integrals:      0.387 (MW) /      3.094 (MB)
	Size of irrep 1 of <ia|bc> integrals:      0.231 (MW) /      1.847 (MB)
	Size of irrep 2 of <ia|bc> integrals:      0.337 (MW) /      2.696 (MB)
	Size of irrep 3 of <ia|bc> integrals:      0.270 (MW) /      2.157 (MB)
	Total:                                     1.224 (MW) /      9.794 (MB)

	Size of irrep 0 of tijab amplitudes:       0.078 (MW) /      0.626 (MB)
	Size of irrep 1 of tijab amplitudes:       0.035 (MW) /      0.281 (MB)
	Size of irrep 2 of tijab amplitudes:       0.058 (MW) /      0.460 (MB)
	Size of irrep 3 of tijab amplitudes:       0.051 (MW) /      0.410 (MB)
	Total:                                     0.222 (MW) /      1.777 (MB)


	Sorting File: A <ij|kl> nbuckets = 1
	Sorting File: B(+) <ab|cd> nbuckets = 1
	Sorting File: C <ia|jb> nbuckets = 1
	Sorting File: D <ij|ab> nbuckets = 1
	Sorting File: E <ai|jk> nbuckets = 1
	Sorting File: F <ia|bc> nbuckets = 1
	One-electron energy          =   -193.84348289067489
	Two-electron (AA) energy     =     40.56752150297037
	Two-electron (BB) energy     =     40.56752150297037
	Two-electron (AB) energy     =     50.54556494805838
	Two-electron energy          =     91.11308645102875
	Frozen-core energy (transqt) =   -240.51542960393863
	Reference energy             =   -208.15369755516514

*** tstop() called on lawn-143-215-103-161.lawn.gatech.edu at Fri Apr 27 14:09:17 2012
Module time:
	user time   =       0.44 seconds =       0.01 minutes
	system time =       0.38 seconds =       0.01 minutes
	total time  =          4 seconds =       0.07 minutes
Total time:
	user time   =       6.11 seconds =       0.10 minutes
	system time =       0.95 seconds =       0.02 minutes
	total time  =         13 seconds =       0.22 minutes

*** tstart() called on lawn-143-215-103-161.lawn.gatech.edu
*** at Fri Apr 27 14:09:17 2012

			**************************
			*                        *
			*        CCENERGY        *
			*                        *
			**************************

	Nuclear Rep. energy (chkpt)   =  135.092128488419604
	SCF energy          (chkpt)   = -208.153697555165053
	Reference energy    (file100) = -208.153697555165138

	Input parameters:
	-----------------
	Wave function   =   CCSD_T
	Reference wfn   =     RHF
	Memory (Mbytes) =     250.0
	Maxiter         =     50
	Convergence     =     1.0e-10
	Restart         =     No
	DIIS            =     Yes
	AO Basis        =     NONE
	ABCD            =     NEW
	Cache Level     =     2
	Cache Type      =     LOW
	Print Level     =     1
	Num. of threads =     1
	# Amps to Print =     10
	Print MP2 Amps? =     No
	Analyze T2 Amps =     No
	Print Pair Ener =     No
	Local CC        =     No
	SCS-MP2         =     False
	SCSN-MP2        =     False
	SCS-CCSD        =     False

	            Solving CC Amplitude Equations
	            ------------------------------
  Iter             Energy              RMS        T1Diag      D1Diag    New D1Diag
  ----     ---------------------    ---------   ----------  ----------  ----------
     0        -0.703378249863361    0.000e+00    0.000000    0.000000    0.000000
     1        -0.704046235468875    9.110e-02    0.011623    0.039146    0.039146
     2        -0.725379182546924    3.418e-02    0.011502    0.037926    0.037926
     3        -0.731249936446562    1.464e-02    0.013768    0.047460    0.047460
     4        -0.731241875077564    4.304e-03    0.014218    0.049385    0.049385
     5        -0.731400656994434    2.090e-03    0.014546    0.051114    0.051114
     6        -0.731409596728656    7.122e-04    0.014645    0.051663    0.051663
     7        -0.731391932690533    3.585e-04    0.014688    0.051896    0.051896
     8        -0.731388538747040    1.311e-04    0.014704    0.051984    0.051984
     9        -0.731391055343783    4.962e-05    0.014708    0.052005    0.052005
    10        -0.731387680635686    1.935e-05    0.014710    0.052012    0.052012
    11        -0.731388378420603    5.875e-06    0.014709    0.052010    0.052010
    12        -0.731388062983322    2.463e-06    0.014709    0.052010    0.052010
    13        -0.731388073324569    8.135e-07    0.014709    0.052010    0.052010
    14        -0.731388088097663    2.841e-07    0.014709    0.052010    0.052010
    15        -0.731388086167781    1.219e-07    0.014709    0.052009    0.052009
    16        -0.731388085733461    4.555e-08    0.014709    0.052009    0.052009
    17        -0.731388085475003    2.165e-08    0.014709    0.052009    0.052009
    18        -0.731388085235761    8.240e-09    0.014709    0.052009    0.052009
    19        -0.731388085088741    3.371e-09    0.014709    0.052009    0.052009
    20        -0.731388085010641    1.214e-09    0.014709    0.052009    0.052009
    21        -0.731388084995395    3.197e-10    0.014709    0.052009    0.052009
    22        -0.731388084980468    1.375e-10    0.014709    0.052009    0.052009
    23        -0.731388084978763    4.246e-11    0.014709    0.052009    0.052009

	Iterations converged.


	Largest TIA Amplitudes:
	         11  58         0.0378366502
	         12  57        -0.0310500764
	         11  57         0.0188491277
	         11  60         0.0147727438
	          9  43         0.0118923715
	          9  45         0.0113062619
	          8  38         0.0109832528
	          4   3         0.0108100707
	         12  61        -0.0096911351
	          9  42         0.0092807956

	Largest TIjAb Amplitudes:
	 12  12  58  58        -0.0542254396
	  9   9  38  38        -0.0531091150
	 11  11  58  58        -0.0461024960
	  8   8  38  38        -0.0323997273
	  5   5  39  39        -0.0317585502
	  9   9  37  38        -0.0313061406
	  9   9  38  37        -0.0313061406
	  9  12  38  58         0.0243891140
	 12   9  58  38         0.0243891140
	  5   5  38  39         0.0236892491

	SCF energy       (chkpt)              = -208.153697555165053
	Reference energy (file100)            = -208.153697555165138

	Opposite-spin MP2 correlation energy  =   -0.519297796433590
	Same-spin MP2 correlation energy      =   -0.184080453429771
	MP2 correlation energy                =   -0.703378249863363
      * MP2 total energy                      = -208.857075805028501

	Opposite-spin CCSD correlation energy =   -0.570648784223905
	Same-spin CCSD correlation energy     =   -0.160739300798282
	CCSD correlation energy               =   -0.731388084978763
      * CCSD total energy                     = -208.885085640143899


*** tstop() called on lawn-143-215-103-161.lawn.gatech.edu at Fri Apr 27 14:09:50 2012
Module time:
	user time   =      13.84 seconds =       0.23 minutes
	system time =       5.31 seconds =       0.09 minutes
	total time  =         33 seconds =       0.55 minutes
Total time:
	user time   =      19.96 seconds =       0.33 minutes
	system time =       6.27 seconds =       0.10 minutes
	total time  =         46 seconds =       0.77 minutes

*** tstart() called on lawn-143-215-103-161.lawn.gatech.edu
*** at Fri Apr 27 14:09:50 2012

			**************************
			*                        *
			*        CCTRIPLES       *
			*                        *
			**************************


	Wave function   =    CCSD_T
	Reference wfn   =      RHF

	Nuclear Rep. energy (chkpt)   =  135.092128488419604
	SCF energy          (chkpt)   = -208.153697555165053
	Reference energy    (file100) = -208.153697555165138
	CCSD energy         (file100) =   -0.731388084978763
	Total CCSD energy   (file100) = -208.885085640143899

	Number of ijk index combinations: 455
	(T) energy                    =   -0.030675386471505
      * CCSD(T) total energy          = -208.915761026615399


*** tstop() called on lawn-143-215-103-161.lawn.gatech.edu at Fri Apr 27 14:10:02 2012
Module time:
	user time   =      12.28 seconds =       0.20 minutes
	system time =       1.96 seconds =       0.03 minutes
	total time  =         12 seconds =       0.20 minutes
Total time:
	user time   =      32.24 seconds =       0.54 minutes
	system time =       8.23 seconds =       0.14 minutes
	total time  =         58 seconds =       0.97 minutes

*** PSI4 exiting successfully. Buy a developer a beer!
