    -----------------------------------------------------------------------
          PSI4: An Open-Source Ab Initio Electronic Structure Package
                              PSI 4.0.0-beta1 Driver

               Git: Rev 8268e5ba0276eef671d5bc4a44cf66fa46407463

    J. M. Turney, A. C. Simmonett, R. M. Parrish, E. G. Hohenstein,
    F. A. Evangelista, J. T. Fermann, B. J. Mintz, L. A. Burns, J. J. Wilke,
    M. L. Abrams, N. J. Russ, M. L. Leininger, C. L. Janssen, E. T. Seidl,
    W. D. Allen, H. F. Schaefer, R. A. King, E. F. Valeev, C. D. Sherrill,
    and T. D. Crawford, WIREs Comput. Mol. Sci., (2011) (doi: 10.1002/wcms.93)

                         Additional Contributions by
    A. E. DePrince, M. Saitow, U. Bozkaya, A. Yu. Sokolov
    -----------------------------------------------------------------------


    Using LocalCommunicator (Number of processes = 1)

    Memory level set to 256.000 MB

  ==> Input File <==

--------------------------------------------------------------------------
#! Ne atom RASCI/cc-pVQZ 
#! Example of split-virtual CISD[TQ] from Sherrill and Schaefer,
#! J. Phys. Chem. XXX
#! This uses a "primary" virtual space 3s3p (RAS 2), a "secondary" virtual
#! space 3d4s4p4d4f (RAS 3), and a "tertiary" virtual space consisting
#! of the remaining virtuals.  First, an initial CISD computation is run
#! to get the natural orbitals; this allows a meaningful partitioning of
#! the virtual orbitals into groups of different importance.  Next, the
#! RASCI is run.  The split-virtual CISD[TQ] takes all singles and doubles,
#! and all triples and quadruples with no more than 2 electrons in the
#! secondary virtual subspace (RAS 3).  If any electrons are present in
#! the tertiary virtual subspace (RAS 4), then that excitation is only allowed
#! if it is a single or double.
#

memory 250 mb

# First, get the natural orbitals
refnuc   =    0.0000000000    #TEST
refscf   = -128.5434696591    #TEST
refci    = -128.831056567643 #TEST
refcorr  = refci - refscf     #TEST

molecule ne {
  Ne
}

set globals {
  wfn detci
  basis cc-pVQZ
  d_convergence 10
# docc            [2, 0, 0, 0, 0, 1, 1, 1]
  frozen_docc     [1, 0, 0, 0, 0, 0, 0, 0]
  ex_level 2
}

set detci {
  nat_orbs_write true
}

set transqt2 {
  delete_tei false
}

psioh = PsiMod.IOManager.shared_object()
psioh.set_specific_retention(32, True)
psioh.set_specific_retention(33, True)
psioh.set_specific_retention(35, True)

thisenergy = energy('detci')

compare_values(refnuc, ne.nuclear_repulsion_energy(), 9, "Nuclear repulsion energy") #TEST 
compare_values(refscf, get_variable("SCF total energy"),     9, "SCF energy") #TEST
compare_values(refci, thisenergy,                      7, "CI energy") #TEST
compare_values(refcorr, get_variable("CI CORRELATION ENERGY"), 7, "CI correlation energy") #TEST

clean()


# Now, run the RASCI
refnuc   =    0.0000000000    #TEST
refscf   = -128.5434696591    #TEST
refci    = -128.8398832876687 #TEST
refcorr  = refci - refscf     #TEST

set globals {
  wfn detci
  d_convergence 10
  frozen_docc     [2, 0, 0, 0, 0, 1, 1, 1]
  ras1            [1, 0, 0, 0, 0, 1, 1, 1]
  ras2            [1, 0, 0, 0, 0, 1, 1, 1]
  ras3            [5, 2, 2, 2, 1, 3, 3, 3]
  ex_level 2
  val_ex_level 2
}

set detci {
  maxiter 25
  nat_orbs_write false

  # This keyword is at the heart of the "split-virtual" CISD[TQ].
  # If electrons are in RAS 4, do not allow the excitation to go beyond
  # that specified by ex_level (here, only singles & doubles allowed if
  # RAS 4 is populated)
  mixed4 false
  
  # this will just reduce the number of strings generated in the
  # computation; because of the mixed4=false specification above, not
  # all of the strings normally allowed by the RAS will actually be needed
  # in this computation
  r4s true
}

thisenergy = energy('detci',bypass_scf='True')

compare_values(refnuc, ne.nuclear_repulsion_energy(), 9, "Nuclear repulsion energy") #TEST 
compare_values(refscf, get_variable("SCF total energy"),     9, "SCF energy") #TEST
compare_values(refci, thisenergy,                      7, "CI energy") #TEST
compare_values(refcorr, get_variable("CI CORRELATION ENERGY"), 7, "CI correlation energy") #TEST
--------------------------------------------------------------------------

  Memory set to 250.000 MiB by Python script.

*** tstart() called on lawn-143-215-103-161.lawn.gatech.edu
*** at Fri Apr 27 14:06:23 2012

	There are an even number of electrons - assuming singlet.
	Specify the multiplicity with the MULTP option in the
	input if this is incorrect


         ---------------------------------------------------------
                                   SCF
            by Justin Turney, Rob Parrish, and Andy Simmonett
                              RHF Reference
                        1 Threads,    250 MiB Core
         ---------------------------------------------------------

  ==> Geometry <==

    Molecular point group: d2h

    Geometry (in Angstrom), charge = 0, multiplicity = 1:

       Center              X                  Y                   Z       
    ------------   -----------------  -----------------  -----------------
          NE          0.000000000000     0.000000000000     0.000000000000

  Running in d2h symmetry.

  Nuclear repulsion =    0.000000000000000

  Charge       = 0
  Multiplicity = 1
  Electrons    = 10
  Nalpha       = 5
  Nbeta        = 5

  ==> Algorithm <==

  SCF Algorithm Type is PK.
  DIIS enabled.
  MOM disabled.
  Fractional occupation disabled.
  Guess Type is CORE.
  Energy threshold   = 1.00e-08
  Density threshold  = 1.00e-10
  Integral threshold = 0.00e+00

  ==> Primary Basis <==

  Basis Set: cc-pVQZ
    Number of shells: 15
    Number of basis function: 55
    Number of Cartesian functions: 70
    Spherical Harmonics?: true
    Max angular momentum: 4

  ==> Pre-Iterations <==

  Minimum eigenvalue in the overlap matrix is 3.3404210321E-03.
  Using Symmetric Orthogonalization.
  SCF Guess: Core (One-Electron) Hamiltonian.

  Initial RHF energy:   -99.94528847251996

   -------------------------------------------------------
    Irrep   Nso     Nmo     Nalpha   Nbeta   Ndocc  Nsocc
   -------------------------------------------------------
     Ag        14      14       2       2       2       0
     B1g        5       5       0       0       0       0
     B2g        5       5       0       0       0       0
     B3g        5       5       0       0       0       0
     Au         2       2       0       0       0       0
     B1u        8       8       1       1       1       0
     B2u        8       8       1       1       1       0
     B3u        8       8       1       1       1       0
   -------------------------------------------------------
    Total      55      55       5       5       5       0
   -------------------------------------------------------

  ==> Integral Setup <==

 MINTS: Wrapper to libmints.
   by Justin Turney

   Calculation information:
      Number of atoms:                   1
      Number of AO shells:              15
      Number of SO shells:              15
      Number of primitives:             33
      Number of atomic orbitals:        70
      Number of basis functions:        55

      Number of irreps:                  8
      Number of functions per irrep: [  14    5    5    5    2    8    8    8 ]

      Overlap, kinetic, potential, dipole, and quadrupole integrals
        stored in file 35.

      Computing two-electron integrals...done
      Computed 114545 non-zero two-electron integrals.
        Stored in file 33.

  ==> Iterations <==

                        Total Energy        Delta E     Density RMS

   @RHF iter   1:  -112.65674060533655   -1.27115e+01   0.00000e+00 
   @RHF iter   2:  -119.59347230062885   -6.93673e+00   1.19820e-01 DIIS
   @RHF iter   3:  -127.28319269223235   -7.68972e+00   9.74746e-02 DIIS
   @RHF iter   4:  -128.49209217106585   -1.20890e+00   1.66206e-02 DIIS
   @RHF iter   5:  -128.54336303978977   -5.12709e-02   4.16189e-03 DIIS
   @RHF iter   6:  -128.54346950471435   -1.06465e-04   2.72135e-04 DIIS
   @RHF iter   7:  -128.54346965842194   -1.53708e-07   1.86333e-05 DIIS
   @RHF iter   8:  -128.54346965909150   -6.69559e-10   9.46750e-07 DIIS
   @RHF iter   9:  -128.54346965912143   -2.99281e-11   1.56734e-07 DIIS
   @RHF iter  10:  -128.54346965912148   -5.68434e-14   6.30648e-09 DIIS
   @RHF iter  11:  -128.54346965912146    2.84217e-14   1.48335e-10 DIIS

  ==> Post-Iterations <==

	Orbital Energies (a.u.)
	-----------------------

	Doubly Occupied:                                                      

	   1Ag   -32.771496     2Ag    -1.929338     1B2u   -0.848959  
	   1B3u   -0.848959     1B1u   -0.848959  

	Virtual:                                                              

	   2B3u    0.808904     2B1u    0.808904     2B2u    0.808904  
	   3Ag     0.935600     4Ag     1.997811     1B2g    1.997811  
	   1B3g    1.997811     5Ag     1.997811     1B1g    1.997811  
	   3B2u    3.932819     3B3u    3.932819     3B1u    3.932819  
	   6Ag     5.810685     4B3u    5.904221     1Au     5.904221  
	   4B2u    5.904221     4B1u    5.904221     5B3u    5.904221  
	   5B1u    5.904221     5B2u    5.904221     7Ag     6.761695  
	   8Ag     6.761695     2B2g    6.761695     2B3g    6.761695  
	   2B1g    6.761695     3B2g   14.903626     9Ag    14.903626  
	   3B1g   14.903626    10Ag    14.903626     4B2g   14.903626  
	   4B1g   14.903626     3B3g   14.903626    11Ag    14.903626  
	   4B3g   14.903626     6B2u   15.804421     6B1u   15.804421  
	   6B3u   15.804421     7B3u   19.794586     7B1u   19.794586  
	   8B3u   19.794586     2Au    19.794586     7B2u   19.794586  
	   8B2u   19.794586     8B1u   19.794586    12Ag    20.954550  
	   5B2g   20.954550    13Ag    20.954550     5B1g   20.954550  
	   5B3g   20.954550    14Ag    66.550956  

	Final Occupation by Irrep:
	         Ag   B1g   B2g   B3g    Au   B1u   B2u   B3u 
	DOCC [     2,    0,    0,    0,    0,    1,    1,    1 ]

  Energy converged.

  @RHF Final Energy:  -128.54346965912146

   => Energetics <=

    Nuclear Repulsion Energy =          0.0000000000000000
    One-Electron Energy =            -182.5915177628444610
    Two-Electron Energy =              54.0480481037229765
    DFT Functional Energy =             0.0000000000000000
    Empirical Dispersion Energy =       0.0000000000000000
    Total Energy =                   -128.5434696591214845

  ==> Properties <==

  Nuclear Dipole Moment: (a.u.)
     X:     0.0000      Y:     0.0000      Z:     0.0000

  Electronic Dipole Moment: (a.u.)
     X:     0.0000      Y:     0.0000      Z:     0.0000

  Dipole Moment: (a.u.)
     X:     0.0000      Y:     0.0000      Z:     0.0000     Total:     0.0000

  Dipole Moment: (Debye)
     X:     0.0000      Y:     0.0000      Z:     0.0000     Total:     0.0000


  Saving occupied orbitals to File 180.

*** tstop() called on lawn-143-215-103-161.lawn.gatech.edu at Fri Apr 27 14:06:24 2012
Module time:
	user time   =       0.40 seconds =       0.01 minutes
	system time =       0.03 seconds =       0.00 minutes
	total time  =          1 seconds =       0.02 minutes
Total time:
	user time   =       0.40 seconds =       0.01 minutes
	system time =       0.03 seconds =       0.00 minutes
	total time  =          1 seconds =       0.02 minutes

*** tstart() called on lawn-143-215-103-161.lawn.gatech.edu
*** at Fri Apr 27 14:06:24 2012


	**************************************************
	* TRANSQT2: Program to transform integrals from  *
	*           the SO basis to the MO basis.        *
	*                                                *
	*            Daniel, David, & Justin             *
	**************************************************


	Input parameters:
	-----------------
	Wave function   =	DETCI
	Backtransform   =	No
	Print Level     =	1
	Print TEIs      =	No
	Reference wfn   =	RHF
	Derivative      =	None
	Delete TEI File =	No
	Memory (Mbytes) =	250.0
	Cache Level     =	2
	Cache Type      =	LRU
	Chkpt Parameters:
	--------------------
	Number of irreps     = 8
	Number of SOs        = 55
	Number of MOs        = 55
	Number of active MOs = 54

	Label	# SOs	# FZDC	# DOCC	# SOCC	# VIRT	# FZVR
	-----	-----	------	------	------	------	------
	 Ag	   14	    1	    1	    0	    12	    0
	 B1g	   5	    0	    0	    0	    5	    0
	 B2g	   5	    0	    0	    0	    5	    0
	 B3g	   5	    0	    0	    0	    5	    0
	 Au	   2	    0	    0	    0	    2	    0
	 B1u	   8	    0	    1	    0	    7	    0
	 B2u	   8	    0	    1	    0	    7	    0
	 B3u	   8	    0	    1	    0	    7	    0

	Nuclear Rep. energy (chkpt) =      0.00000000000000
	SCF energy          (chkpt) =   -128.54346965912146

	Presorting SO-basis two-electron integrals.
	Sorting File: SO Ints (pq,rs) nbuckets = 1
	Frozen-core energy =  -93.851412196556595
	Starting first half-transformation.
	Sorting half-transformed integrals.
	Starting second half-transformation.
	Two-electron integral transformation complete.

*** tstop() called on lawn-143-215-103-161.lawn.gatech.edu at Fri Apr 27 14:06:24 2012
Module time:
	user time   =       0.10 seconds =       0.00 minutes
	system time =       0.05 seconds =       0.00 minutes
	total time  =          0 seconds =       0.00 minutes
Total time:
	user time   =       0.50 seconds =       0.01 minutes
	system time =       0.08 seconds =       0.00 minutes
	total time  =          1 seconds =       0.02 minutes

*** tstart() called on lawn-143-215-103-161.lawn.gatech.edu
*** at Fri Apr 27 14:06:24 2012


*******************************************************
                       D E T C I  

                   C. David Sherrill
                   Matt L. Leininger
                     18 June 1999
*******************************************************




PARAMETERS: 
   EX LEVEL      =        2      H0 BLOCKSIZE =      400
   VAL EX LEVEL  =        0      H0 GUESS SIZE=      400
   H0COUPLINGSIZE=        0      H0 COUPLING  =       no
   NUM PRINT     =       20
   MAXITER       =       12      FREEZE CORE  =      yes
   NUM ROOTS     =        1      ICORE        =        1
   PRINT         =        1      FCI          =       no
   R CONV        =   1.00e-04      MIXED        =      yes
   E CONV        =   1.00e-06      MIXED4       =      yes
   OEI FILE      =       35      R4S          =       no
   REPL OTF      =       no
   TEI FILE      =       72      DIAG METHOD  =      SEM
   PRECONDITIONER= DAVIDSON      UPDATE       =   DAVIDSON
   S             =   0.0000      Ms0          =      yes
   MAX NUM VECS  =       13
   RESTART       =       no
   GUESS VECTOR  =  H0BLOCK      OPENTYPE     =     NONE
   REF SYM       =     auto
   COLLAPSE SIZE =        1      HD AVG       = EVANGELISTI
   LSE           =       no      LSE ITER     =        0
   HD OTF        =      yes      NO DFILE     =       no
   MPN           =       no      MPN SCHMIDT  =       no
   ZAPTN         =       no      MPN WIGNER   =       no
   PERT Z        =   1.0000    FOLLOW ROOT  =        0
   NUM THREADS   =        1
   VECS WRITE    =       no      NUM VECS WRITE =        0
   FILTER GUESS  =       no      SF RESTRICT  =       no
   OPDM          =      yes      TRANS DENSITY=       no

   FILES         =  50 51 52 53

   EX ALLOW      =  1  1 
   STATE AVERAGE =  1(1.00) 
   STATE AVERAGE =  1(1.00) 

ORBITALS:
   NMO          =       55      NUM ALP      =        5
   ORBS IN CI   =       54      NUM ALP EXPL =        4
   FROZEN CORE  =        1      NUM BET      =        5
   RESTR CORE   =        0      NUM BET EXPL =        4
   IOPEN        =       no
   RAS1 LVL     =        3      A RAS3 MAX   =        2
   RAS1 MIN     =        8      B RAS3 MAX   =        2
   A RAS1 LVL   =        3      RAS4 LVL     =       54
   A RAS1 MIN   =        3      A RAS4 MAX   =        0
   A RAS1 MAX   =        5      B RAS4 MAX   =        0
   B RAS1 LVL   =        3      RAS4 MAX     =        0
   B RAS1 MIN   =        3      A RAS34 MAX  =        2
   B RAS1 MAX   =        5      B RAS34 MAX  =        2
   RAS3 LVL     =        4      RAS34 MAX    =        2
   RAS3 MAX     =        2

   DOCC         =  2  0  0  0  0  1  1  1 
   SOCC         =  0  0  0  0  0  0  0  0 
   FROZEN DOCC  =  1  0  0  0  0  0  0  0 
   FROZEN UOCC  =  0  0  0  0  0  0  0  0 
   RAS 1        =  1  0  0  0  0  1  1  1 
   RAS 2        =  0  0  0  0  0  0  0  0 
   RAS 3        = 12  5  5  5  2  7  7  7 
   RAS 4        =  0  0  0  0  0  0  0  0 
*******************************************************


There are 7551 alpha strings
There are 7551 beta strings
CI space contains   13 blocks

CI space requires 7163 determinants

Check SCF Energy from 1- and 2-electron integrals

SCF Energy (ref):           -128.5434696591
Nuclear repulsion energy:      0.0000000000
One-electron energy:         -60.4316858579
Two-electron energy:          25.7396283953
Frozen core energy:          -93.8514121966
Total electronic energy:    -128.5434696591
Total SCF energy:           -128.5434696591

 CI vector/subblock length = 7163

*** H0 Block Eigenvalue = -128.65847729

Find the roots by the Simultaneous Expansion Method (Block Davidson Method)
Energy convergence = 1e-06
RMS CI vector convergence = 0.0001

Using 1 initial trial vectors
Iter  0  Root  1 = -128.658477285   Delta_E -3.481E+01   Delta_C  1.710E+00  
Iter  1  Root  1 = -128.828537484   Delta_E -1.701E-01   Delta_C  1.289E-01  
Iter  2  Root  1 = -128.830948597   Delta_E -2.411E-03   Delta_C  2.665E-02  
Iter  3  Root  1 = -128.831049587   Delta_E -1.010E-04   Delta_C  6.335E-03  
Iter  4  Root  1 = -128.831056326   Delta_E -6.738E-06   Delta_C  1.502E-03  
Iter  5  Root  1 = -128.831056562   Delta_E -2.363E-07   Delta_C  2.236E-04  
Iter  6  Root  1 = -128.831056568   Delta_E -5.479E-09   Delta_C  3.174E-05 c

* ROOT 1 CI total energy = -128.8310565675378


The 20 most important determinants

    1   -0.983578  ( 3779, 3779)  2AgX  1B1uX  1B2uX  1B3uX  
    2    0.027618  ( 3799, 3799)  2AgX  1B1uX  1B3uX  2B2uX  
    3    0.027618  ( 3792, 3792)  2AgX  1B2uX  1B3uX  2B1uX  
    4    0.027618  ( 3806, 3806)  2AgX  1B1uX  1B2uX  2B3uX  
    5   -0.020330  ( 3792, 3799)  2AgX  1B1uB  1B2uA  1B3uX  2B1uA  2B2uB  
    6   -0.020330  ( 3799, 3792)  2AgX  1B1uA  1B2uB  1B3uX  2B1uB  2B2uA  
    7    0.020330  ( 3792, 3806)  2AgX  1B1uB  1B2uX  1B3uA  2B1uA  2B3uB  
    8    0.020330  ( 3806, 3792)  2AgX  1B1uA  1B2uX  1B3uB  2B1uB  2B3uA  
    9   -0.020330  ( 3799, 3806)  2AgX  1B1uX  1B2uB  1B3uA  2B2uA  2B3uB  
   10   -0.020330  ( 3806, 3799)  2AgX  1B1uX  1B2uA  1B3uB  2B2uB  2B3uA  
*  11    0.017130  ( 3800, 3800)  2AgX  1B1uX  1B3uX  3B2uX  
*  12    0.017130  ( 3807, 3807)  2AgX  1B1uX  1B2uX  3B3uX  
*  13    0.017130  ( 3793, 3793)  2AgX  1B2uX  1B3uX  3B1uX  
   14    0.016175  ( 3780, 3792)  2AgB  1B1uA  1B2uX  1B3uX  3AgA  2B1uB  
   15    0.016175  ( 3792, 3780)  2AgA  1B1uB  1B2uX  1B3uX  3AgB  2B1uA  
   16   -0.016175  ( 3780, 3799)  2AgB  1B1uX  1B2uA  1B3uX  3AgA  2B2uB  
   17   -0.016175  ( 3799, 3780)  2AgA  1B1uX  1B2uB  1B3uX  3AgB  2B2uA  
   18    0.016175  ( 3780, 3806)  2AgB  1B1uX  1B2uX  1B3uA  3AgA  2B3uB  
   19    0.016175  ( 3806, 3780)  2AgA  1B1uX  1B2uX  1B3uB  3AgB  2B3uA  
   20    0.015909  ( 3779, 4290)  2AgX  1B1uA  1B2uA  1B3uX  2B1uB  2B2uB  



    Molecular point group: d2h

    Geometry (in Angstrom), charge = 0, multiplicity = 1:

       Center              X                  Y                   Z       
    ------------   -----------------  -----------------  -----------------
          NE          0.000000000000     0.000000000000     0.000000000000


Wrote MO-basis OPDM 1 to disk

Wrote MO-basis Alpha OPDM 1 to disk

Wrote MO-basis Beta OPDM 1 to disk
Wrote MO-basis OPDM to disk
Wrote MO-basis Alpha OPDM to disk
Wrote MO-basis Beta OPDM to disk

  ==> Properties CI OPDM Root 1 <==
  Nuclear Dipole Moment: (a.u.)
     X:     0.0000      Y:     0.0000      Z:     0.0000

  Electronic Dipole Moment: (a.u.)
     X:     0.0000      Y:     0.0000      Z:     0.0000

  Dipole Moment: (a.u.)
     X:     0.0000      Y:     0.0000      Z:     0.0000     Total:     0.0000

  Dipole Moment: (Debye)
     X:     0.0000      Y:     0.0000      Z:     0.0000     Total:     0.0000

  Mulliken Charges: (a.u.)
   Center  Symbol    Alpha    Beta     Spin     Total
       1    NE     5.00000  5.00000  0.00000 -0.00000

   Total alpha =  5.00000, Total beta =  5.00000, Total charge = -0.00000

  Natural Orbital Occupations:

  Total Occupations:
  HONO-2 :    1B1u    1.982
  HONO-1 :    1B2u    1.982
  HONO-0 :    1B3u    1.982
  LUNO+0 :    2B2u    0.010
  LUNO+1 :    2B1u    0.010
  LUNO+2 :    2B3u    0.010
  LUNO+3 :    3 Ag    0.007


 CI Natural Orbitals in terms of Molecular Orbitals: Root 1


 Ag Block (MO basis)

           1           2           3           4           5           6           7           8           9          10

    1   1.0000000   0.0000000   0.0000000   0.0000000  -0.0000000   0.0000000   0.0000000  -0.0000000   0.0000000   0.0000000
    2   0.0000000  -0.9999938   0.0018069   0.0000000   0.0000000   0.0030013  -0.0000000  -0.0000000   0.0000000   0.0000000
    3   0.0000000  -0.0031187  -0.8508129   0.0000000  -0.0000000  -0.5226544   0.0000000   0.0000000   0.0000000  -0.0000000
    4   0.0000000   0.0000000  -0.0000000   0.7420934  -0.3199060  -0.0000000  -0.5608548  -0.0424044   0.0000000   0.0000000
    5   0.0000000   0.0000000  -0.0000000   0.3199060   0.7420934   0.0000000   0.0424044  -0.5608548  -0.0000000  -0.0000000
    6   0.0000000  -0.0016084   0.5252813  -0.0000000  -0.0000000  -0.8432423   0.0000000  -0.0000000  -0.0000000   0.0000000
    7   0.0000000   0.0000000  -0.0000000  -0.5810675   0.0086254  -0.0000000  -0.6362963  -0.3213254   0.0000000   0.0000000
    8   0.0000000   0.0000000  -0.0000000  -0.0086254  -0.5810675   0.0000000   0.3213254  -0.6362963  -0.0000000  -0.0000000
    9   0.0000000  -0.0000000   0.0000000   0.0000000  -0.0000000  -0.0000000   0.0000000   0.0000000   0.6921203  -0.6912846
   10   0.0000000   0.0000000  -0.0000000  -0.0000000   0.0000000   0.0000000   0.0000000  -0.0000000   0.7217762   0.6617098
   11   0.0000000   0.0000000  -0.0000000   0.0000000   0.0000000  -0.0000000  -0.0000000  -0.0000000  -0.0029135  -0.2902855
   12   0.0000000  -0.0000000   0.0000000   0.0428098  -0.0860871  -0.0000000   0.3393014  -0.2457544   0.0000000  -0.0000000
   13   0.0000000  -0.0000000  -0.0000000   0.0860871   0.0428098  -0.0000000   0.2457544   0.3393014   0.0000000  -0.0000000
   14   0.0000000   0.0001197  -0.0139146   0.0000000  -0.0000000   0.1255621  -0.0000000  -0.0000000  -0.0000000  -0.0000000

        2.0000000   1.9904470   0.0067919   0.0038643   0.0038643   0.0002485   0.0003677   0.0003677   0.0000489   0.0000489

          11          12          13          14

    1  -0.0000000  -0.0000000   0.0000000   0.0000000
    2  -0.0000000   0.0000000   0.0000000  -0.0002339
    3   0.0000000  -0.0000000  -0.0000000   0.0542217
    4   0.0000000   0.1704188   0.0394797  -0.0000000
    5  -0.0000000  -0.0394797   0.1704188   0.0000000
    6  -0.0000000  -0.0000000  -0.0000000   0.1141027
    7   0.0000000   0.3195995   0.2280773  -0.0000000
    8  -0.0000000  -0.2280773   0.3195995   0.0000000
    9   0.2075933  -0.0000000  -0.0000000  -0.0000000
   10  -0.2029265  -0.0000000  -0.0000000   0.0000000
   11  -0.9569357  -0.0000000  -0.0000000  -0.0000000
   12  -0.0000000   0.8030855  -0.4126612  -0.0000000
   13  -0.0000000   0.4126612   0.8030855  -0.0000000
   14  -0.0000000   0.0000000  -0.0000000   0.9919882

        0.0000489   0.0000265   0.0000265   0.0000041

 Writing CI Natural Orbitals for root 1 to checkpoint in terms of Symmetry Orbitals

 Ag Block (SO basis)

                 1            2            3            4            5            6            7            8            9           10

    1    0.9911006    0.0002501    0.0718467    0.0000000   -0.0000000    0.9407810   -0.0000000   -0.0000000   -0.0000000   -0.0000000
    2    0.0000004   -0.3652092    0.5834551    0.0000000    0.0000000    0.5369071    0.0000000   -0.0000000   -0.0000000   -0.0000000
    3    0.0186637   -0.3031518    1.3790205    0.0000000    0.0000000   -2.3036861    0.0000000    0.0000000    0.0000000    0.0000000
    4   -0.0021672   -0.5746990   -0.1741124   -0.0000000    0.0000000    3.6547983   -0.0000000   -0.0000000   -0.0000000   -0.0000000
    5    0.0009512   -0.2804343   -0.9649841    0.0000000   -0.0000000   -2.0190610    0.0000000    0.0000000    0.0000000    0.0000000
    6   -0.0000000    0.0000000   -0.0000000    0.1317664    0.0540440   -0.0000000    0.3212068    0.3820526    0.0000000   -0.0000000
    7    0.0000000    0.0000000   -0.0000000   -0.0540440    0.1317664    0.0000000   -0.3820526    0.3212068   -0.0000000    0.0000000
    8    0.0000000   -0.0000000    0.0000000    0.5285375    0.2167797    0.0000000    0.3521723    0.4188838   -0.0000000    0.0000000
    9   -0.0000000   -0.0000000    0.0000000   -0.2167797    0.5285375   -0.0000000   -0.4188838    0.3521723    0.0000000   -0.0000000
   10   -0.0000000    0.0000000   -0.0000000    0.4238803    0.1738545   -0.0000000   -0.6197867   -0.7371921    0.0000000    0.0000000
   11    0.0000000    0.0000000   -0.0000000   -0.1738545    0.4238803    0.0000000    0.7371921   -0.6197867   -0.0000000   -0.0000000
   12   -0.0000000    0.0000000   -0.0000000    0.0000000   -0.0000000   -0.0000000   -0.0000000   -0.0000000    0.5246398   -0.5466606
   13   -0.0000000   -0.0000000    0.0000000    0.0000000    0.0000000    0.0000000    0.0000000    0.0000000    0.1758140   -0.6804971
   14   -0.0000000    0.0000000    0.0000000    0.0000000   -0.0000000   -0.0000000   -0.0000000   -0.0000000   -0.8329721   -0.4879405

                11           12           13           14

    1   -0.0000000    0.0000000   -0.0000000   11.6132490
    2   -0.0000000    0.0000000   -0.0000000   12.4179173
    3    0.0000000    0.0000000   -0.0000000    2.3108888
    4   -0.0000000    0.0000000    0.0000000   -1.8688113
    5    0.0000000   -0.0000000   -0.0000000    0.6966888
    6   -0.0000000    0.6448354    1.0590851   -0.0000000
    7    0.0000000   -1.0590851    0.6448354    0.0000000
    8   -0.0000000   -0.7657661   -1.2577030    0.0000000
    9    0.0000000    1.2577030   -0.7657661   -0.0000000
   10    0.0000000    0.4176221    0.6859074   -0.0000000
   11   -0.0000000   -0.6859074    0.4176221    0.0000000
   12   -0.6526218   -0.0000000   -0.0000000   -0.0000000
   13    0.7113461   -0.0000000    0.0000000    0.0000000
   14   -0.2609053    0.0000000   -0.0000000   -0.0000000



 Warning: Natural Orbitals for the Root 0 OPDM have been written to the checkpoint file!


 B1g Block (MO basis)

           1           2           3           4           5

    1   0.8081105  -0.5624556   0.0000000  -0.0000000  -0.1749320
    2  -0.5811315  -0.7128275   0.0000000  -0.0000000  -0.3926361
    3   0.0000000   0.0000000  -0.9986391   0.0521523  -0.0000000
    4   0.0000000   0.0000000   0.0521523   0.9986391  -0.0000000
    5   0.0961440   0.4189519   0.0000000  -0.0000000  -0.9029040

        0.0038643   0.0003677   0.0000489   0.0000489   0.0000265
 B1g Block (SO basis)

                 1            2            3            4            5

    1    0.1424188    0.4991373    0.0000000   -0.0000000   -1.2399492
    2    0.5712664    0.5472558   -0.0000000    0.0000000    1.4724858
    3    0.4581484   -0.9631136    0.0000000   -0.0000000   -0.8030425
    4    0.0000000    0.0000000    0.0000802    1.0000000   -0.0000000
    5    0.0000000   -0.0000000    1.0000000   -0.0000802    0.0000000



 Warning: Natural Orbitals for the Root 0 OPDM have been written to the checkpoint file!


 B2g Block (MO basis)

           1           2           3           4           5

    1   0.8081105  -0.5624556  -0.0000000   0.0000000  -0.1749320
    2  -0.5811315  -0.7128275  -0.0000000   0.0000000  -0.3926361
    3   0.0000000   0.0000000  -0.9998286  -0.0185116   0.0000000
    4  -0.0000000   0.0000000  -0.0185116   0.9998286   0.0000000
    5   0.0961440   0.4189519  -0.0000000   0.0000000  -0.9029040

        0.0038643   0.0003677   0.0000489   0.0000489   0.0000265
 B2g Block (SO basis)

                 1            2            3            4            5

    1    0.1424188    0.4991373   -0.0000000    0.0000000   -1.2399492
    2    0.5712664    0.5472558    0.0000000   -0.0000000    1.4724858
    3    0.4581484   -0.9631136   -0.0000000    0.0000000   -0.8030425
    4    0.0000000   -0.0000000   -0.4342862    0.9007750    0.0000000
    5    0.0000000   -0.0000000   -0.9007750   -0.4342862    0.0000000



 Warning: Natural Orbitals for the Root 0 OPDM have been written to the checkpoint file!


 B3g Block (MO basis)

           1           2           3           4           5

    1   0.8081105  -0.5624556  -0.0000000  -0.0000000  -0.1749320
    2  -0.5811315  -0.7128275  -0.0000000  -0.0000000  -0.3926361
    3   0.0000000   0.0000000  -0.9980611  -0.0622425   0.0000000
    4  -0.0000000   0.0000000   0.0622425  -0.9980611   0.0000000
    5   0.0961440   0.4189519  -0.0000000  -0.0000000  -0.9029040

        0.0038643   0.0003677   0.0000489   0.0000489   0.0000265
 B3g Block (SO basis)

                 1            2            3            4            5

    1    0.1424188    0.4991373   -0.0000000   -0.0000000   -1.2399492
    2    0.5712664    0.5472558    0.0000000    0.0000000    1.4724858
    3    0.4581484   -0.9631136   -0.0000000   -0.0000000   -0.8030425
    4   -0.0000000    0.0000000   -0.5240353   -0.8516965    0.0000000
    5   -0.0000000    0.0000000    0.8516965   -0.5240353    0.0000000



 Warning: Natural Orbitals for the Root 0 OPDM have been written to the checkpoint file!


 Au Block (MO basis)

           1           2

    1  -0.9204092  -0.3909563
    2   0.3909563  -0.9204092

        0.0003494   0.0000350
 Au Block (SO basis)

                 1            2

    1    0.3635428   -1.1065035
    2    0.7636652    0.8793912



 Warning: Natural Orbitals for the Root 0 OPDM have been written to the checkpoint file!


 B1u Block (MO basis)

           1           2           3           4           5           6           7           8

    1  -0.9999798  -0.0023757   0.0056528   0.0000000   0.0000000   0.0016777   0.0000000   0.0000000
    2   0.0053372  -0.8121832   0.5313526  -0.0000000  -0.0000000   0.2408202  -0.0000000   0.0000000
    3  -0.0032291  -0.5786931  -0.6814673   0.0000000   0.0000000  -0.4480025   0.0000000  -0.0000000
    4   0.0000000   0.0000000   0.0000000  -0.8794798   0.2714193  -0.0000000  -0.3731577   0.1166199
    5   0.0000000   0.0000000   0.0000000   0.2714193   0.8794798  -0.0000000   0.1166199   0.3731577
    6  -0.0012245  -0.0739406  -0.5032244  -0.0000000   0.0000000   0.8609858  -0.0000000   0.0000000
    7  -0.0000000   0.0000000  -0.0000000  -0.3909534  -0.0015149   0.0000000   0.9204092   0.0002857
    8   0.0000000  -0.0000000  -0.0000000   0.0015149  -0.3909534  -0.0000000  -0.0002857   0.9204092

        1.9816567   0.0104506   0.0005154   0.0003494   0.0003494   0.0000721   0.0000350   0.0000350
 B1u Block (SO basis)

                 1            2            3            4            5            6            7            8

    1   -0.2102888   -0.3421719   -0.7818396   -0.0000000    0.0000000    1.1463237   -0.0000000    0.0000000
    2   -0.3655502   -0.6297747    0.1565612    0.0000000   -0.0000000   -1.9985200    0.0000000   -0.0000000
    3   -0.4299290    0.3641178    1.0694472   -0.0000000   -0.0000000    1.8385476   -0.0000000    0.0000000
    4   -0.2503891    0.6336247   -1.0046512    0.0000000    0.0000000   -0.9056871    0.0000000   -0.0000000
    5    0.0000000   -0.0000000   -0.0000000    0.0014087   -0.3635401   -0.0000000   -0.0003435    1.1065034
    6   -0.0000000    0.0000000   -0.0000000   -0.3635401   -0.0014087    0.0000000    1.1065034    0.0003435
    7   -0.0000000   -0.0000000   -0.0000000    0.0029592   -0.7636594    0.0000000    0.0002730   -0.8793911
    8   -0.0000000   -0.0000000   -0.0000000   -0.7636594   -0.0029592   -0.0000000   -0.8793911   -0.0002730



 Warning: Natural Orbitals for the Root 0 OPDM have been written to the checkpoint file!


 B2u Block (MO basis)

           1           2           3           4           5           6           7           8

    1   0.9999798  -0.0023757   0.0056528  -0.0000000   0.0000000  -0.0016777   0.0000000  -0.0000000
    2  -0.0053372  -0.8121832   0.5313526   0.0000000  -0.0000000  -0.2408202   0.0000000   0.0000000
    3   0.0032291  -0.5786931  -0.6814673  -0.0000000   0.0000000   0.4480025  -0.0000000  -0.0000000
    4  -0.0000000   0.0000000   0.0000000  -0.9155733  -0.0942263   0.0000000   0.3889361  -0.0396931
    5  -0.0000000   0.0000000   0.0000000  -0.0942263   0.9155733   0.0000000   0.0396931   0.3889361
    6   0.0012245  -0.0739406  -0.5032244  -0.0000000   0.0000000  -0.8609858   0.0000000  -0.0000000
    7   0.0000000  -0.0000000  -0.0000000   0.3909563   0.0002082   0.0000000   0.9204092   0.0002925
    8   0.0000000  -0.0000000  -0.0000000   0.0002082  -0.3909563  -0.0000000  -0.0002925   0.9204092

        1.9816567   0.0104506   0.0005154   0.0003494   0.0003494   0.0000721   0.0000350   0.0000350
 B2u Block (SO basis)

                 1            2            3            4            5            6            7            8

    1    0.2102888   -0.3421719   -0.7818396   -0.0000000    0.0000000   -1.1463237    0.0000000   -0.0000000
    2    0.3655502   -0.6297747    0.1565612    0.0000000   -0.0000000    1.9985200   -0.0000000   -0.0000000
    3    0.4299290    0.3641178    1.0694472    0.0000000   -0.0000000   -1.8385476    0.0000000    0.0000000
    4    0.2503891    0.6336247   -1.0046512   -0.0000000    0.0000000    0.9056871   -0.0000000   -0.0000000
    5    0.0000000    0.0000000   -0.0000000    0.3635428    0.0001936    0.0000000    1.1065034    0.0003517
    6    0.0000000    0.0000000   -0.0000000    0.0001936   -0.3635428   -0.0000000   -0.0003517    1.1065034
    7    0.0000000   -0.0000000   -0.0000000    0.7636651    0.0004068   -0.0000000   -0.8793911   -0.0002795
    8    0.0000000   -0.0000000   -0.0000000    0.0004068   -0.7636651   -0.0000000    0.0002795   -0.8793911



 Warning: Natural Orbitals for the Root 0 OPDM have been written to the checkpoint file!


 B3u Block (MO basis)

           1           2           3           4           5           6           7           8

    1  -0.9999798   0.0023757  -0.0056528   0.0000000   0.0000000   0.0016777   0.0000000  -0.0000000
    2   0.0053372   0.8121832  -0.5313526   0.0000000  -0.0000000   0.2408202  -0.0000000  -0.0000000
    3  -0.0032291   0.5786931   0.6814673  -0.0000000   0.0000000  -0.4480025   0.0000000   0.0000000
    4   0.0000000   0.0000000   0.0000000   0.9101572   0.1369925   0.0000000   0.3866600  -0.0578006
    5  -0.0000000   0.0000000   0.0000000   0.1369925  -0.9101572   0.0000000   0.0578006   0.3866600
    6  -0.0012245   0.0739406   0.5032244  -0.0000000  -0.0000000   0.8609858  -0.0000000  -0.0000000
    7   0.0000000   0.0000000  -0.0000000  -0.3909561  -0.0003941   0.0000000   0.9204092  -0.0000021
    8   0.0000000  -0.0000000  -0.0000000   0.0003941  -0.3909561  -0.0000000  -0.0000021  -0.9204092

        1.9816567   0.0104506   0.0005154   0.0003494   0.0003494   0.0000721   0.0000350   0.0000350
 B3u Block (SO basis)

                 1            2            3            4            5            6            7            8

    1   -0.2102888    0.3421719    0.7818396   -0.0000000   -0.0000000    1.1463237   -0.0000000   -0.0000000
    2   -0.3655502    0.6297747   -0.1565612    0.0000000    0.0000000   -1.9985200    0.0000000    0.0000000
    3   -0.4299290   -0.3641178   -1.0694472    0.0000000   -0.0000000    1.8385476   -0.0000000   -0.0000000
    4   -0.2503891   -0.6336247    1.0046512   -0.0000000    0.0000000   -0.9056871    0.0000000    0.0000000
    5    0.0000000   -0.0000000   -0.0000000   -0.3635427   -0.0003664    0.0000000    1.1065035   -0.0000026
    6    0.0000000    0.0000000    0.0000000    0.0003664   -0.3635427   -0.0000000   -0.0000026   -1.1065035
    7   -0.0000000    0.0000000   -0.0000000   -0.7636648   -0.0007697   -0.0000000   -0.8793912    0.0000020
    8   -0.0000000   -0.0000000   -0.0000000    0.0007697   -0.7636648    0.0000000    0.0000020    0.8793912



 Warning: Natural Orbitals for the Root 0 OPDM have been written to the checkpoint file!


        Total Time (s)     %Time 		%Relative
 -----------------------------------------------------
 Read      0.005122
 Write     0.002366
 Sigma1    0.000920
 Sigma2    0.387834
 Sigma3    0.298272
 S1 Thread 0.000000
 S2 Thread 0.000000
 S3 Thread 0.000000

		 "A good bug is a dead bug" 

			 - Starship Troopers

		 "I didn't write FORTRAN.  That's the problem."

			 - Edward Valeev


*** tstop() called on lawn-143-215-103-161.lawn.gatech.edu at Fri Apr 27 14:06:26 2012
Module time:
	user time   =       1.32 seconds =       0.02 minutes
	system time =       0.05 seconds =       0.00 minutes
	total time  =          2 seconds =       0.03 minutes
Total time:
	user time   =       1.82 seconds =       0.03 minutes
	system time =       0.13 seconds =       0.00 minutes
	total time  =          3 seconds =       0.05 minutes

*** tstart() called on lawn-143-215-103-161.lawn.gatech.edu
*** at Fri Apr 27 14:06:26 2012


	**************************************************
	* TRANSQT2: Program to transform integrals from  *
	*           the SO basis to the MO basis.        *
	*                                                *
	*            Daniel, David, & Justin             *
	**************************************************


	Input parameters:
	-----------------
	Wave function   =	DETCI
	Backtransform   =	No
	Print Level     =	1
	Print TEIs      =	No
	Reference wfn   =	RHF
	Derivative      =	None
	Delete TEI File =	No
	Memory (Mbytes) =	250.0
	Cache Level     =	2
	Cache Type      =	LRU
	Chkpt Parameters:
	--------------------
	Number of irreps     = 8
	Number of SOs        = 55
	Number of MOs        = 55
	Number of active MOs = 54

	Label	# SOs	# FZDC	# DOCC	# SOCC	# VIRT	# FZVR
	-----	-----	------	------	------	------	------
	 Ag	   14	    1	    1	    0	    12	    0
	 B1g	   5	    0	    0	    0	    5	    0
	 B2g	   5	    0	    0	    0	    5	    0
	 B3g	   5	    0	    0	    0	    5	    0
	 Au	   2	    0	    0	    0	    2	    0
	 B1u	   8	    0	    1	    0	    7	    0
	 B2u	   8	    0	    1	    0	    7	    0
	 B3u	   8	    0	    1	    0	    7	    0

	Nuclear Rep. energy (chkpt) =      0.00000000000000
	SCF energy          (chkpt) =   -128.54346965912146

	Presorting SO-basis two-electron integrals.
	Sorting File: SO Ints (pq,rs) nbuckets = 1
	Frozen-core energy =  -93.851412196556595
	Starting first half-transformation.
	Sorting half-transformed integrals.
	Starting second half-transformation.
	Two-electron integral transformation complete.

*** tstop() called on lawn-143-215-103-161.lawn.gatech.edu at Fri Apr 27 14:06:26 2012
Module time:
	user time   =       0.09 seconds =       0.00 minutes
	system time =       0.04 seconds =       0.00 minutes
	total time  =          0 seconds =       0.00 minutes
Total time:
	user time   =       1.91 seconds =       0.03 minutes
	system time =       0.17 seconds =       0.00 minutes
	total time  =          3 seconds =       0.05 minutes

*** tstart() called on lawn-143-215-103-161.lawn.gatech.edu
*** at Fri Apr 27 14:06:26 2012


*******************************************************
                       D E T C I  

                   C. David Sherrill
                   Matt L. Leininger
                     18 June 1999
*******************************************************




PARAMETERS: 
   EX LEVEL      =        2      H0 BLOCKSIZE =      400
   VAL EX LEVEL  =        2      H0 GUESS SIZE=      400
   H0COUPLINGSIZE=        0      H0 COUPLING  =       no
   NUM PRINT     =       20
   MAXITER       =       25      FREEZE CORE  =      yes
   NUM ROOTS     =        1      ICORE        =        1
   PRINT         =        1      FCI          =       no
   R CONV        =   1.00e-04      MIXED        =      yes
   E CONV        =   1.00e-06      MIXED4       =       no
   OEI FILE      =       35      R4S          =      yes
   REPL OTF      =       no
   TEI FILE      =       72      DIAG METHOD  =      SEM
   PRECONDITIONER= DAVIDSON      UPDATE       =   DAVIDSON
   S             =   0.0000      Ms0          =      yes
   MAX NUM VECS  =       26
   RESTART       =       no
   GUESS VECTOR  =  H0BLOCK      OPENTYPE     =     NONE
   REF SYM       =     auto
   COLLAPSE SIZE =        1      HD AVG       = EVANGELISTI
   LSE           =       no      LSE ITER     =        0
   HD OTF        =      yes      NO DFILE     =       no
   MPN           =       no      MPN SCHMIDT  =       no
   ZAPTN         =       no      MPN WIGNER   =       no
   PERT Z        =   1.0000    FOLLOW ROOT  =        0
   NUM THREADS   =        1
   VECS WRITE    =       no      NUM VECS WRITE =        0
   FILTER GUESS  =       no      SF RESTRICT  =       no
   OPDM          =       no      TRANS DENSITY=       no

   FILES         =  50 51 52 53

   EX ALLOW      =  1  1 
   STATE AVERAGE =  1(1.00) 
   STATE AVERAGE =  1(1.00) 

ORBITALS:
   NMO          =       55      NUM ALP      =        5
   ORBS IN CI   =       54      NUM ALP EXPL =        4
   FROZEN CORE  =        1      NUM BET      =        5
   RESTR CORE   =        0      NUM BET EXPL =        4
   IOPEN        =       no
   RAS1 LVL     =        3      A RAS3 MAX   =        2
   RAS1 MIN     =        6      B RAS3 MAX   =        2
   A RAS1 LVL   =        3      RAS4 LVL     =       29
   A RAS1 MIN   =        1      A RAS4 MAX   =        2
   A RAS1 MAX   =        5      B RAS4 MAX   =        2
   B RAS1 LVL   =        3      RAS4 MAX     =        2
   B RAS1 MIN   =        1      A RAS34 MAX  =        2
   B RAS1 MAX   =        5      B RAS34 MAX  =        2
   RAS3 LVL     =        8      RAS34 MAX    =        2
   RAS3 MAX     =        2

   DOCC         =  2  0  0  0  0  1  1  1 
   SOCC         =  0  0  0  0  0  0  0  0 
   FROZEN DOCC  =  1  0  0  0  0  0  0  0 
   FROZEN UOCC  =  0  0  0  0  0  0  0  0 
   RAS 1        =  1  0  0  0  0  1  1  1 
   RAS 2        =  1  0  0  0  0  1  1  1 
   RAS 3        =  5  2  2  2  1  3  3  3 
   RAS 4        =  6  3  3  3  1  3  3  3 
*******************************************************


There are 25026 alpha strings
There are 25026 beta strings
CI space contains  292 blocks

CI space requires 101397 determinants

Check SCF Energy from 1- and 2-electron integrals

SCF Energy (ref):           -128.5434696591
Nuclear repulsion energy:      0.0000000000
One-electron energy:         -60.3831755386
Two-electron energy:          25.6918709612
Frozen core energy:          -93.8514121966
Total electronic energy:    -128.5427167740
Total SCF energy:           -128.5427167740

*** Calculated Energy Differs from SCF Energy in CHKPT ! ***

*** H0 Block Eigenvalue = -128.75065010

Find the roots by the Simultaneous Expansion Method (Block Davidson Method)
Energy convergence = 1e-06
RMS CI vector convergence = 0.0001

Using 1 initial trial vectors
Iter  0  Root  1 = -128.750650103   Delta_E -3.490E+01   Delta_C  1.331E+00  
Iter  1  Root  1 = -128.831217652   Delta_E -8.057E-02   Delta_C  3.615E-01  
Iter  2  Root  1 = -128.837885597   Delta_E -6.668E-03   Delta_C  1.705E-01  
Iter  3  Root  1 = -128.839388221   Delta_E -1.503E-03   Delta_C  8.160E-02  
Iter  4  Root  1 = -128.839720569   Delta_E -3.323E-04   Delta_C  4.974E-02  
Iter  5  Root  1 = -128.839838216   Delta_E -1.176E-04   Delta_C  2.559E-02  
Iter  6  Root  1 = -128.839871602   Delta_E -3.339E-05   Delta_C  1.220E-02  
Iter  7  Root  1 = -128.839880514   Delta_E -8.912E-06   Delta_C  5.923E-03  
Iter  8  Root  1 = -128.839882476   Delta_E -1.962E-06   Delta_C  2.850E-03  
Iter  9  Root  1 = -128.839882999   Delta_E -5.226E-07   Delta_C  1.744E-03  
Iter 10  Root  1 = -128.839883209   Delta_E -2.097E-07   Delta_C  9.487E-04  
Iter 11  Root  1 = -128.839883267   Delta_E -5.850E-08   Delta_C  5.084E-04  
Iter 12  Root  1 = -128.839883281   Delta_E -1.360E-08   Delta_C  2.268E-04  
Iter 13  Root  1 = -128.839883284   Delta_E -2.886E-09   Delta_C  9.650E-05 c

* ROOT 1 CI total energy = -128.8398832836569


The 20 most important determinants

    1    0.981816  (12510,12510)  2AgX  1B1uX  1B2uX  1B3uX  
    2   -0.041562  (12512,12512)  2AgX  1B2uX  1B3uX  2B1uX  
    3   -0.041562  (12513,12513)  2AgX  1B1uX  1B3uX  2B2uX  
    4   -0.041562  (12514,12514)  2AgX  1B1uX  1B2uX  2B3uX  
    5   -0.030525  (12512,12513)  2AgX  1B1uB  1B2uA  1B3uX  2B1uA  2B2uB  
    6   -0.030525  (12513,12512)  2AgX  1B1uA  1B2uB  1B3uX  2B1uB  2B2uA  
    7    0.030525  (12512,12514)  2AgX  1B1uB  1B2uX  1B3uA  2B1uA  2B3uB  
    8    0.030525  (12514,12512)  2AgX  1B1uA  1B2uX  1B3uB  2B1uB  2B3uA  
    9    0.030525  (12513,12514)  2AgX  1B1uX  1B2uB  1B3uA  2B2uA  2B3uB  
   10    0.030525  (12514,12513)  2AgX  1B1uX  1B2uA  1B3uB  2B2uB  2B3uA  
   11   -0.024135  (12511,12512)  2AgB  1B1uA  1B2uX  1B3uX  3AgA  2B1uB  
   12   -0.024135  (12512,12511)  2AgA  1B1uB  1B2uX  1B3uX  3AgB  2B1uA  
   13   -0.024135  (12511,12513)  2AgB  1B1uX  1B2uA  1B3uX  3AgA  2B2uB  
   14   -0.024135  (12513,12511)  2AgA  1B1uX  1B2uB  1B3uX  3AgB  2B2uA  
   15    0.024135  (12511,12514)  2AgB  1B1uX  1B2uX  1B3uA  3AgA  2B3uB  
   16    0.024135  (12514,12511)  2AgA  1B1uX  1B2uX  1B3uB  3AgB  2B3uA  
   17   -0.023903  (12510,12548)  2AgX  1B1uA  1B2uX  1B3uA  2B1uB  2B3uB  
   18   -0.023903  (12548,12510)  2AgX  1B1uB  1B2uX  1B3uB  2B1uA  2B3uA  
   19    0.023903  (12510,12546)  2AgX  1B1uA  1B2uA  1B3uX  2B1uB  2B2uB  
   20    0.023903  (12546,12510)  2AgX  1B1uB  1B2uB  1B3uX  2B1uA  2B2uA  




        Total Time (s)     %Time 		%Relative
 -----------------------------------------------------
 Read      0.344939
 Write     0.223008
 Sigma1    0.923388
 Sigma2    20.726136
 Sigma3    15.574830
 S1 Thread 0.000000
 S2 Thread 0.000000
 S3 Thread 0.000000

		 "A good bug is a dead bug" 

			 - Starship Troopers

		 "I didn't write FORTRAN.  That's the problem."

			 - Edward Valeev


*** tstop() called on lawn-143-215-103-161.lawn.gatech.edu at Fri Apr 27 14:07:06 2012
Module time:
	user time   =      38.65 seconds =       0.64 minutes
	system time =       0.72 seconds =       0.01 minutes
	total time  =         40 seconds =       0.67 minutes
Total time:
	user time   =      40.57 seconds =       0.68 minutes
	system time =       0.89 seconds =       0.01 minutes
	total time  =         43 seconds =       0.72 minutes

*** PSI4 exiting successfully. Buy a developer a beer!
