    -----------------------------------------------------------------------
          PSI4: An Open-Source Ab Initio Electronic Structure Package
                              PSI 4.0.0-beta1 Driver

               Git: Rev 8268e5ba0276eef671d5bc4a44cf66fa46407463

    J. M. Turney, A. C. Simmonett, R. M. Parrish, E. G. Hohenstein,
    F. A. Evangelista, J. T. Fermann, B. J. Mintz, L. A. Burns, J. J. Wilke,
    M. L. Abrams, N. J. Russ, M. L. Leininger, C. L. Janssen, E. T. Seidl,
    W. D. Allen, H. F. Schaefer, R. A. King, E. F. Valeev, C. D. Sherrill,
    and T. D. Crawford, WIREs Comput. Mol. Sci., (2011) (doi: 10.1002/wcms.93)

                         Additional Contributions by
    A. E. DePrince, M. Saitow, U. Bozkaya, A. Yu. Sokolov
    -----------------------------------------------------------------------


    Using LocalCommunicator (Number of processes = 1)

    Memory level set to 256.000 MB

  ==> Input File <==

--------------------------------------------------------------------------
#! DFT Functional Test

memory 250 mb

E11 = -74.9493412744 #TEST
E12 = -75.3196957567 #TEST
E13 = -75.3185459160 #TEST
E14 = -75.3128178610 #TEST
E15 = -75.5662986402 #TEST
E21 = -74.9493412744 #TEST
E22 = -75.3196957567 #TEST
E23 = -75.3185459160 #TEST
E24 = -75.3128178610 #TEST
E25 = -75.5662986402 #TEST
E31 = -74.6448669477 #TEST
E32 = -74.9677634492 #TEST
E33 = -74.9709217377 #TEST
E34 = -74.9632650037 #TEST
E35 = -75.1947121099 #TEST
E41 = -74.4108252721 #TEST
E42 = -74.8155846044 #TEST
E43 = -74.8011166756 #TEST
E44 = -74.7977834552 #TEST
E45 = -75.0877533145 #TEST

molecule h2o {
0 1
O
H 1 1.0
H 1 1.0 2 104.5
}

set globals {
print 2
basis sto-3g

guess core
scf_type direct
dft_spherical_points 302
dft_radial_points 99
}

V11 = energy('b88_x')
compare_values(E11,V11, 3, "RKS  0 1    B88 Energy") #TEST

V15 = energy('b97-d')
compare_values(E15,V15, 3, "RKS  0 1 B97-D2 Energy") #TEST

V12 = energy('b3lyp')
compare_values(E12,V12, 3, "RKS  0 1  B3LYP Energy") #TEST

V13 = energy('wB97')  # default omega is 0.4
compare_values(E13,V13, 3, "RKS  0 1   wB97 Energy") #TEST

set dft_omega 0.3
V14 = energy('wB97X')
compare_values(E14,V14, 3, "RKS  0 1  wB97X Energy") #TEST

set reference uhf
V21 = energy('b88_x')
compare_values(E21,V21, 3, "UKS  0 1    B88 Energy") #TEST

V25 = energy('b97-d')
compare_values(E25,V25, 3, "UKS  0 1 B97-D2 Energy") #TEST

V22 = energy('b3lyp')
compare_values(E22,V22, 3, "UKS  0 1  B3LYP Energy") #TEST

set dft_omega 0.4
V23 = energy('wB97')
compare_values(E23,V23, 3, "UKS  0 1   wB97 Energy") #TEST

set dft_omega 0.3
V24 = energy('wB97X')
compare_values(E24,V24, 3, "UKS  0 1  wB97X Energy") #TEST

molecule h2op {
1 2
O
H 1 1.0
H 1 1.0 2 104.5
}

set basis sto-3g
# Must be reset in each new molecule
V31 = energy('B88_X')
compare_values(E31,V31, 3, "UKS  1 2    B88 Energy") #TEST

V35 = energy('B97-D')
compare_values(E35,V35, 3, "UKS  1 2 B97-D2 Energy") #TEST

V32 = energy('B3LYP')
compare_values(E32,V32, 3, "UKS  1 2  B3LYP Energy") #TEST

set dft_omega 0.4
V33 = energy('wB97')
compare_values(E33,V33, 3, "UKS  1 2   wB97 Energy") #TEST

set dft_omega 0.3
V34 = energy('wB97X')
compare_values(E34,V34, 3, "UKS  1 2  wB97X Energy") #TEST

molecule h2om {
-1 2
O
H 1 1.0
H 1 1.0 2 104.5
}

set basis sto-3g
V41 = energy('b88_x')
compare_values(E41,V41, 3, "UKS -1 2    B88 Energy") #TEST

V45 = energy('b97-d')
print_variables()
compare_values(E45,V45, 3, "UKS  1 2 B97-D2 Energy") #TEST

V42 = energy('b3lyp')
compare_values(E42,V42, 3, "UKS -1 2  B3LYP Energy") #TEST

set dft_omega 0.4
V43 = energy('wB97')
compare_values(E43,V43, 3, "UKS -1 2   wB97 Energy") #TEST

set dft_omega 0.3
V44 = energy('wB97X')
compare_values(E44,V44, 3, "UKS -1 2  wB97X Energy") #TEST
--------------------------------------------------------------------------

  Memory set to 250.000 MiB by Python script.

*** tstart() called on lawn-143-215-103-161.lawn.gatech.edu
*** at Fri Apr 27 13:56:25 2012


         ---------------------------------------------------------
                                   SCF
            by Justin Turney, Rob Parrish, and Andy Simmonett
                              RKS Reference
                        1 Threads,    250 MiB Core
         ---------------------------------------------------------

  ==> Geometry <==

    Molecular point group: c2v

    Geometry (in Angstrom), charge = 0, multiplicity = 1:

       Center              X                  Y                   Z       
    ------------   -----------------  -----------------  -----------------
           O          0.000000000000     0.000000000000    -0.068516219310
           H          0.000000000000    -0.790689573744     0.543701060724
           H          0.000000000000     0.790689573744     0.543701060724

  Running in c2v symmetry.

  Nuclear repulsion =    8.801465529972068

  Charge       = 0
  Multiplicity = 1
  Electrons    = 10
  Nalpha       = 5
  Nbeta        = 5

  ==> Algorithm <==

  SCF Algorithm Type is DIRECT.
  DIIS enabled.
  MOM disabled.
  Fractional occupation disabled.
  Guess Type is CORE.
  Energy threshold   = 1.00e-08
  Density threshold  = 1.00e-08
  Integral threshold = 0.00e+00

  ==> Primary Basis <==

  -AO BASIS SET INFORMATION:
    Name                   = sto-3g
    Total number of shells = 5
    Number of primitives   = 15
    Number of AO           = 7
    Number of SO           = 7
    Maximum AM             = 1
    Spherical Harmonics    = TRUE

  -Contraction Scheme:
    Atom   Type   All Primitives // Shells:
   ------ ------ --------------------------
       1     O     6s 3p // 2s 1p 
       2     H     3s // 1s 
       3     H     3s // 1s 

  ==> DFT Potential <==

   => B88_X Composite Functional <= 

    Becke88 GGA Exchange

    A.D. Becke, Phys. Rev. A, 38(6):3098-3100, 1988

    Points   =           5000
    Deriv    =              1
    GGA      =           TRUE
    Meta     =          FALSE

    X_LRC    =          FALSE
    X_Hybrid =          FALSE
    X_Alpha  =   0.000000E+00
    X_Omega  =   0.000000E+00
    C_LRC    =          FALSE
    C_Hybrid =          FALSE
    C_Alpha  =   0.000000E+00
    C_Omega  =   0.000000E+00

   => Exchange Functionals <=

    1.0000 B88_X

   => Correlation Functionals <=


   => B88_X Functional <=

    Becke88 GGA Exchange

    A.D. Becke, Phys. Rev. A, 38(6):3098-3100, 1988

    GGA   =           TRUE
    Meta  =          FALSE
    LRC   =          FALSE
    Alpha =   1.000000E+00
    Omega =   0.000000E+00

   => Molecular Quadrature <=

    Spherical Scheme = Lebedev-Laikov
    Radial Scheme    =       Treutler
    Atomic Scheme    =       Treutler

    Spherical Points =            302
    Radial Points    =             99
    Total Points     =          86003
    Total Blocks     =            141
    Max Points       =            986
    Max Functions    =              7

  ==> Pre-Iterations <==

  Minimum eigenvalue in the overlap matrix is 3.7028400642E-01.
  Using Symmetric Orthogonalization.
  SCF Guess: Core (One-Electron) Hamiltonian.

  Initial RKS energy:   -54.63426083487276

   -------------------------------------------------------
    Irrep   Nso     Nmo     Nalpha   Nbeta   Ndocc  Nsocc
   -------------------------------------------------------
     A1         4       4       3       3       3       0
     A2         0       0       0       0       0       0
     B1         1       1       1       1       1       0
     B2         2       2       1       1       1       0
   -------------------------------------------------------
    Total       7       7       5       5       5       0
   -------------------------------------------------------

  ==> Integral Setup <==

  Building Direct Integral Objects...

  ==> Iterations <==

                        Total Energy        Delta E     Density RMS

   @RKS iter   1:   -73.16580766585555   -1.85315e+01   0.00000e+00 
   @RKS iter   2:   -74.08223230148754   -9.16425e-01   4.93372e-01 DIIS
   @RKS iter   3:   -74.94825820584714   -8.66026e-01   3.05956e-01 DIIS
   @RKS iter   4:   -74.94933514328612   -1.07694e-03   1.43803e-02 DIIS
   @RKS iter   5:   -74.94937098440653   -3.58411e-05   1.23335e-03 DIIS
   @RKS iter   6:   -74.94937498652882   -4.00212e-06   4.40530e-04 DIIS
   @RKS iter   7:   -74.94937516884366   -1.82315e-07   1.22512e-04 DIIS
   @RKS iter   8:   -74.94937516938488   -5.41220e-10   6.30273e-06 DIIS

  ==> Post-Iterations <==

	Orbital Energies (a.u.)
	-----------------------

	Doubly Occupied:                                                      

	   1A1   -18.450318     2A1    -0.782593     1B2    -0.334067  
	   3A1    -0.129868     1B1    -0.029260  

	Virtual:                                                              

	   4A1     0.304317     2B2     0.410059  

	Final Occupation by Irrep:
	         A1    A2    B1    B2 
	DOCC [     3,    0,    1,    1 ]

  Energy converged.

  @RKS Final Energy:   -74.94937516938488

   => Energetics <=

    Nuclear Repulsion Energy =          8.8014655299720683
    One-Electron Energy =            -121.5672351108954388
    Two-Electron Energy =              46.8564144436169059
    DFT Functional Energy =            -9.0400200320784059
    Empirical Dispersion Energy =       0.0000000000000000
    Total Energy =                    -74.9493751693848793

  ==> Properties <==

  Nuclear Dipole Moment: (a.u.)
     X:     0.0000      Y:     0.0000      Z:     1.0191

  Electronic Dipole Moment: (a.u.)
     X:     0.0000      Y:     0.0000      Z:    -0.4303

  Dipole Moment: (a.u.)
     X:     0.0000      Y:     0.0000      Z:     0.5888     Total:     0.5888

  Dipole Moment: (Debye)
     X:     0.0000      Y:     0.0000      Z:     1.4965     Total:     1.4965

  Quadrupole Moment: (Debye Ang)
    XX:    -6.1511     YY:    -4.4805     ZZ:    -5.2767
    XY:     0.0000     XZ:     0.0000     YZ:     0.0000

  Traceless Quadrupole Moment: (Debye Ang)
    XX:    -0.8483     YY:     0.8222     ZZ:     0.0261
    XY:     0.0000     XZ:     0.0000     YZ:     0.0000

  Mulliken Charges: (a.u.)
   Center  Symbol    Alpha    Beta     Spin     Total
       1     O     4.14905  4.14905  0.00000 -0.29810
       2     H     0.42547  0.42547  0.00000  0.14905
       3     H     0.42547  0.42547  0.00000  0.14905

   Total alpha =  5.00000, Total beta =  5.00000, Total charge = -0.00000


  Saving occupied orbitals to File 180.

*** tstop() called on lawn-143-215-103-161.lawn.gatech.edu at Fri Apr 27 13:56:27 2012
Module time:
	user time   =       1.37 seconds =       0.02 minutes
	system time =       0.05 seconds =       0.00 minutes
	total time  =          2 seconds =       0.03 minutes
Total time:
	user time   =       1.37 seconds =       0.02 minutes
	system time =       0.05 seconds =       0.00 minutes
	total time  =          2 seconds =       0.03 minutes

*** tstart() called on lawn-143-215-103-161.lawn.gatech.edu
*** at Fri Apr 27 13:56:27 2012


         ---------------------------------------------------------
                                   SCF
            by Justin Turney, Rob Parrish, and Andy Simmonett
                              RKS Reference
                        1 Threads,    250 MiB Core
         ---------------------------------------------------------

  ==> Geometry <==

    Molecular point group: c2v

    Geometry (in Angstrom), charge = 0, multiplicity = 1:

       Center              X                  Y                   Z       
    ------------   -----------------  -----------------  -----------------
           O          0.000000000000     0.000000000000    -0.068516219310
           H          0.000000000000    -0.790689573744     0.543701060724
           H          0.000000000000     0.790689573744     0.543701060724

  Running in c2v symmetry.

  Nuclear repulsion =    8.801465529972068

  Charge       = 0
  Multiplicity = 1
  Electrons    = 10
  Nalpha       = 5
  Nbeta        = 5

  ==> Algorithm <==

  SCF Algorithm Type is DIRECT.
  DIIS enabled.
  MOM disabled.
  Fractional occupation disabled.
  Guess Type is CORE.
  Energy threshold   = 1.00e-08
  Density threshold  = 1.00e-08
  Integral threshold = 0.00e+00

  ==> Primary Basis <==

  -AO BASIS SET INFORMATION:
    Name                   = sto-3g
    Total number of shells = 5
    Number of primitives   = 15
    Number of AO           = 7
    Number of SO           = 7
    Maximum AM             = 1
    Spherical Harmonics    = TRUE

  -Contraction Scheme:
    Atom   Type   All Primitives // Shells:
   ------ ------ --------------------------
       1     O     6s 3p // 2s 1p 
       2     H     3s // 1s 
       3     H     3s // 1s 

  ==> DFT Potential <==

   => B97-D Composite Functional <= 

    B97-D Pure-GGA Exchange-Correlation Functional

    S. Grimme, J. Comput. Chem., 27, 1787-1799, 2006

    Points   =           5000
    Deriv    =              1
    GGA      =           TRUE
    Meta     =          FALSE

    X_LRC    =          FALSE
    X_Hybrid =          FALSE
    X_Alpha  =   0.000000E+00
    X_Omega  =   0.000000E+00
    C_LRC    =          FALSE
    C_Hybrid =          FALSE
    C_Alpha  =   0.000000E+00
    C_Omega  =   0.000000E+00

   => Exchange Functionals <=

    1.0000 B97-D_X

   => Correlation Functionals <=

    1.0000 B97-D_C

   => B97-D_X Functional <=

    B97 Parameterized GGA Exchange

    A.D. Becke, J. Chem. Phys., 107(20), 8554-8560, 1997

    GGA   =           TRUE
    Meta  =          FALSE
    LRC   =          FALSE
    Alpha =   1.000000E+00
    Omega =   0.000000E+00

   => B97-D_C Functional <=



    GGA   =           TRUE
    Meta  =          FALSE
    LRC   =          FALSE
    Alpha =   1.000000E+00
    Omega =   0.000000E+00

   => -D2: Empirical Dispersion <=

    Grimme's -D2 Dispersion Correction

    Grimme, S. (2006),  J. Comp. Chem., 27: 1787-1799

    S6 =   1.250000E+00

   => Molecular Quadrature <=

    Spherical Scheme = Lebedev-Laikov
    Radial Scheme    =       Treutler
    Atomic Scheme    =       Treutler

    Spherical Points =            302
    Radial Points    =             99
    Total Points     =          86003
    Total Blocks     =            141
    Max Points       =            986
    Max Functions    =              7

  ==> Pre-Iterations <==

  Minimum eigenvalue in the overlap matrix is 3.7028400642E-01.
  Using Symmetric Orthogonalization.
  SCF Guess: Core (One-Electron) Hamiltonian.

  Initial RKS energy:   -54.63426083487276

   -------------------------------------------------------
    Irrep   Nso     Nmo     Nalpha   Nbeta   Ndocc  Nsocc
   -------------------------------------------------------
     A1         4       4       3       3       3       0
     A2         0       0       0       0       0       0
     B1         1       1       1       1       1       0
     B2         2       2       1       1       1       0
   -------------------------------------------------------
    Total       7       7       5       5       5       0
   -------------------------------------------------------

  ==> Integral Setup <==

  Building Direct Integral Objects...

  ==> Iterations <==

                        Total Energy        Delta E     Density RMS

   @RKS iter   1:   -73.83536991137488   -1.92011e+01   0.00000e+00 
   @RKS iter   2:   -74.70032642100475   -8.64957e-01   4.92377e-01 DIIS
   @RKS iter   3:   -75.56529404991649   -8.64968e-01   3.03608e-01 DIIS
   @RKS iter   4:   -75.56620841659635   -9.14367e-04   1.25397e-02 DIIS
   @RKS iter   5:   -75.56628957594835   -8.11594e-05   1.84307e-03 DIIS
   @RKS iter   6:   -75.56629854793277   -8.97198e-06   7.30695e-04 DIIS
   @RKS iter   7:   -75.56629865452739   -1.06595e-07   9.13751e-05 DIIS
   @RKS iter   8:   -75.56629865461403   -8.66436e-11   2.52609e-06 DIIS

  ==> Post-Iterations <==

	Orbital Energies (a.u.)
	-----------------------

	Doubly Occupied:                                                      

	   1A1   -18.524263     2A1    -0.850186     1B2    -0.397179  
	   3A1    -0.196529     1B1    -0.098302  

	Virtual:                                                              

	   4A1     0.243799     2B2     0.348431  

	Final Occupation by Irrep:
	         A1    A2    B1    B2 
	DOCC [     3,    0,    1,    1 ]

  Energy converged.

  @RKS Final Energy:   -75.56629865461403

   => Energetics <=

    Nuclear Repulsion Energy =          8.8014655299720683
    One-Electron Energy =            -121.6479010420684119
    Two-Electron Energy =              46.9453014986040813
    DFT Functional Energy =            -9.6650986685725702
    Empirical Dispersion Energy =      -0.0000659725491935
    Total Energy =                    -75.5662986546140303

  ==> Properties <==

  Nuclear Dipole Moment: (a.u.)
     X:     0.0000      Y:     0.0000      Z:     1.0191

  Electronic Dipole Moment: (a.u.)
     X:     0.0000      Y:     0.0000      Z:    -0.4048

  Dipole Moment: (a.u.)
     X:     0.0000      Y:     0.0000      Z:     0.6143     Total:     0.6143

  Dipole Moment: (Debye)
     X:     0.0000      Y:     0.0000      Z:     1.5614     Total:     1.5614

  Quadrupole Moment: (Debye Ang)
    XX:    -6.1397     YY:    -4.3943     ZZ:    -5.2312
    XY:     0.0000     XZ:     0.0000     YZ:     0.0000

  Traceless Quadrupole Moment: (Debye Ang)
    XX:    -0.8846     YY:     0.8607     ZZ:     0.0239
    XY:     0.0000     XZ:     0.0000     YZ:     0.0000

  Mulliken Charges: (a.u.)
   Center  Symbol    Alpha    Beta     Spin     Total
       1     O     4.16273  4.16273  0.00000 -0.32546
       2     H     0.41864  0.41864  0.00000  0.16273
       3     H     0.41864  0.41864  0.00000  0.16273

   Total alpha =  5.00000, Total beta =  5.00000, Total charge = -0.00000


  Saving occupied orbitals to File 180.

*** tstop() called on lawn-143-215-103-161.lawn.gatech.edu at Fri Apr 27 13:56:32 2012
Module time:
	user time   =       4.92 seconds =       0.08 minutes
	system time =       0.05 seconds =       0.00 minutes
	total time  =          5 seconds =       0.08 minutes
Total time:
	user time   =       6.29 seconds =       0.10 minutes
	system time =       0.10 seconds =       0.00 minutes
	total time  =          7 seconds =       0.12 minutes

*** tstart() called on lawn-143-215-103-161.lawn.gatech.edu
*** at Fri Apr 27 13:56:32 2012


         ---------------------------------------------------------
                                   SCF
            by Justin Turney, Rob Parrish, and Andy Simmonett
                              RKS Reference
                        1 Threads,    250 MiB Core
         ---------------------------------------------------------

  ==> Geometry <==

    Molecular point group: c2v

    Geometry (in Angstrom), charge = 0, multiplicity = 1:

       Center              X                  Y                   Z       
    ------------   -----------------  -----------------  -----------------
           O          0.000000000000     0.000000000000    -0.068516219310
           H          0.000000000000    -0.790689573744     0.543701060724
           H          0.000000000000     0.790689573744     0.543701060724

  Running in c2v symmetry.

  Nuclear repulsion =    8.801465529972068

  Charge       = 0
  Multiplicity = 1
  Electrons    = 10
  Nalpha       = 5
  Nbeta        = 5

  ==> Algorithm <==

  SCF Algorithm Type is DIRECT.
  DIIS enabled.
  MOM disabled.
  Fractional occupation disabled.
  Guess Type is CORE.
  Energy threshold   = 1.00e-08
  Density threshold  = 1.00e-08
  Integral threshold = 0.00e+00

  ==> Primary Basis <==

  -AO BASIS SET INFORMATION:
    Name                   = sto-3g
    Total number of shells = 5
    Number of primitives   = 15
    Number of AO           = 7
    Number of SO           = 7
    Maximum AM             = 1
    Spherical Harmonics    = TRUE

  -Contraction Scheme:
    Atom   Type   All Primitives // Shells:
   ------ ------ --------------------------
       1     O     6s 3p // 2s 1p 
       2     H     3s // 1s 
       3     H     3s // 1s 

  ==> DFT Potential <==

   => B3LYP Composite Functional <= 

    B3LYP Hybrid-GGA Exchange-Correlation Functional

    P.J. Stephens et. al., J. Phys. Chem., 98, 11623-11627, 1994

    Points   =           5000
    Deriv    =              1
    GGA      =           TRUE
    Meta     =          FALSE

    X_LRC    =          FALSE
    X_Hybrid =           TRUE
    X_Alpha  =   2.000000E-01
    X_Omega  =   0.000000E+00
    C_LRC    =          FALSE
    C_Hybrid =          FALSE
    C_Alpha  =   0.000000E+00
    C_Omega  =   0.000000E+00

   => Exchange Functionals <=

    0.8000  B3_X
    0.2000    HF 

   => Correlation Functionals <=

    0.1900 VWN3RPA_C
    0.8100 LYP_C

   => B3_X Functional <=

    Becke88 GGA Exchange (B3LYP weighting)

    P.J. Stephens et. al., J. Phys. Chem., 98, 11623-11627, 1994

    GGA   =           TRUE
    Meta  =          FALSE
    LRC   =          FALSE
    Alpha =   1.000000E+00
    Omega =   0.000000E+00

   => VWN3RPA_C Functional <=

    VWN3 (RPA) LSDA Correlation

    S.H. Vosko, L. Wilk, and M. Nusair, Can. J. Phys., 58, 1200-1211, 1980

    GGA   =          FALSE
    Meta  =          FALSE
    LRC   =          FALSE
    Alpha =   1.900000E-01
    Omega =   0.000000E+00

   => LYP_C Functional <=

    LYP Correlation

    B. Miehlich et. al., Chem. Phys. Lett., 157(3), 200-206 (1989)

    GGA   =           TRUE
    Meta  =          FALSE
    LRC   =          FALSE
    Alpha =   8.100000E-01
    Omega =   0.000000E+00

   => Molecular Quadrature <=

    Spherical Scheme = Lebedev-Laikov
    Radial Scheme    =       Treutler
    Atomic Scheme    =       Treutler

    Spherical Points =            302
    Radial Points    =             99
    Total Points     =          86003
    Total Blocks     =            141
    Max Points       =            986
    Max Functions    =              7

  ==> Pre-Iterations <==

  Minimum eigenvalue in the overlap matrix is 3.7028400642E-01.
  Using Symmetric Orthogonalization.
  SCF Guess: Core (One-Electron) Hamiltonian.

  Initial RKS energy:   -54.63426083487276

   -------------------------------------------------------
    Irrep   Nso     Nmo     Nalpha   Nbeta   Ndocc  Nsocc
   -------------------------------------------------------
     A1         4       4       3       3       3       0
     A2         0       0       0       0       0       0
     B1         1       1       1       1       1       0
     B2         2       2       1       1       1       0
   -------------------------------------------------------
    Total       7       7       5       5       5       0
   -------------------------------------------------------

  ==> Integral Setup <==

  Building Direct Integral Objects...

  ==> Iterations <==

                        Total Energy        Delta E     Density RMS

   @RKS iter   1:   -73.57669723431769   -1.89424e+01   0.00000e+00 
   @RKS iter   2:   -74.52405732960561   -9.47360e-01   4.86899e-01 DIIS
   @RKS iter   3:   -75.31685621431566   -7.92799e-01   2.71116e-01 DIIS
   @RKS iter   4:   -75.31950622104014   -2.65001e-03   1.16114e-02 DIIS
   @RKS iter   5:   -75.31970190488437   -1.95684e-04   3.24773e-03 DIIS
   @RKS iter   6:   -75.31971283598151   -1.09311e-05   6.52363e-04 DIIS
   @RKS iter   7:   -75.31971405974001   -1.22376e-06   3.04800e-04 DIIS
   @RKS iter   8:   -75.31971406103419   -1.29418e-09   9.88666e-06 DIIS

  ==> Post-Iterations <==

	Orbital Energies (a.u.)
	-----------------------

	Doubly Occupied:                                                      

	   1A1   -18.840683     2A1    -0.916512     1B2    -0.427084  
	   3A1    -0.233392     1B1    -0.142454  

	Virtual:                                                              

	   4A1     0.317930     2B2     0.427495  

	Final Occupation by Irrep:
	         A1    A2    B1    B2 
	DOCC [     3,    0,    1,    1 ]

  Energy converged.

  @RKS Final Energy:   -75.31971406103419

   => Energetics <=

    Nuclear Repulsion Energy =          8.8014655299720683
    One-Electron Energy =            -121.6673399481473865
    Two-Electron Energy =              45.1530456745039572
    DFT Functional Energy =            -7.6068853173628286
    Empirical Dispersion Energy =       0.0000000000000000
    Total Energy =                    -75.3197140610341904

  ==> Properties <==

  Nuclear Dipole Moment: (a.u.)
     X:     0.0000      Y:     0.0000      Z:     1.0191

  Electronic Dipole Moment: (a.u.)
     X:     0.0000      Y:     0.0000      Z:    -0.3867

  Dipole Moment: (a.u.)
     X:     0.0000      Y:     0.0000      Z:     0.6324     Total:     0.6324

  Dipole Moment: (Debye)
     X:     0.0000      Y:     0.0000      Z:     1.6073     Total:     1.6073

  Quadrupole Moment: (Debye Ang)
    XX:    -6.1357     YY:    -4.3649     ZZ:    -5.2208
    XY:     0.0000     XZ:     0.0000     YZ:     0.0000

  Traceless Quadrupole Moment: (Debye Ang)
    XX:    -0.8952     YY:     0.8755     ZZ:     0.0197
    XY:     0.0000     XZ:     0.0000     YZ:     0.0000

  Mulliken Charges: (a.u.)
   Center  Symbol    Alpha    Beta     Spin     Total
       1     O     4.16492  4.16492  0.00000 -0.32983
       2     H     0.41754  0.41754  0.00000  0.16492
       3     H     0.41754  0.41754  0.00000  0.16492

   Total alpha =  5.00000, Total beta =  5.00000, Total charge = -0.00000


  Saving occupied orbitals to File 180.

*** tstop() called on lawn-143-215-103-161.lawn.gatech.edu at Fri Apr 27 13:56:35 2012
Module time:
	user time   =       3.46 seconds =       0.06 minutes
	system time =       0.05 seconds =       0.00 minutes
	total time  =          3 seconds =       0.05 minutes
Total time:
	user time   =       9.75 seconds =       0.16 minutes
	system time =       0.15 seconds =       0.00 minutes
	total time  =         10 seconds =       0.17 minutes

*** tstart() called on lawn-143-215-103-161.lawn.gatech.edu
*** at Fri Apr 27 13:56:35 2012


         ---------------------------------------------------------
                                   SCF
            by Justin Turney, Rob Parrish, and Andy Simmonett
                              RKS Reference
                        1 Threads,    250 MiB Core
         ---------------------------------------------------------

  ==> Geometry <==

    Molecular point group: c2v

    Geometry (in Angstrom), charge = 0, multiplicity = 1:

       Center              X                  Y                   Z       
    ------------   -----------------  -----------------  -----------------
           O          0.000000000000     0.000000000000    -0.068516219310
           H          0.000000000000    -0.790689573744     0.543701060724
           H          0.000000000000     0.790689573744     0.543701060724

  Running in c2v symmetry.

  Nuclear repulsion =    8.801465529972068

  Charge       = 0
  Multiplicity = 1
  Electrons    = 10
  Nalpha       = 5
  Nbeta        = 5

  ==> Algorithm <==

  SCF Algorithm Type is DIRECT.
  DIIS enabled.
  MOM disabled.
  Fractional occupation disabled.
  Guess Type is CORE.
  Energy threshold   = 1.00e-08
  Density threshold  = 1.00e-08
  Integral threshold = 0.00e+00

  ==> Primary Basis <==

  -AO BASIS SET INFORMATION:
    Name                   = sto-3g
    Total number of shells = 5
    Number of primitives   = 15
    Number of AO           = 7
    Number of SO           = 7
    Maximum AM             = 1
    Spherical Harmonics    = TRUE

  -Contraction Scheme:
    Atom   Type   All Primitives // Shells:
   ------ ------ --------------------------
       1     O     6s 3p // 2s 1p 
       2     H     3s // 1s 
       3     H     3s // 1s 

  ==> DFT Potential <==

   => wB97 Composite Functional <= 

    Parameterized LRC B97 GGA XC Functional

    J.-D. Chai and M. Head-Gordon, J. Chem. Phys., 128, 084106, 2008

    Points   =           5000
    Deriv    =              1
    GGA      =           TRUE
    Meta     =          FALSE

    X_LRC    =           TRUE
    X_Hybrid =          FALSE
    X_Alpha  =   0.000000E+00
    X_Omega  =   4.000000E-01
    C_LRC    =          FALSE
    C_Hybrid =          FALSE
    C_Alpha  =   0.000000E+00
    C_Omega  =   0.000000E+00

   => Exchange Functionals <=

    1.0000 wB97_X [\omega = 0.4000]
    1.0000 HF,LR [\omega = 0.4000]

   => Correlation Functionals <=

    1.0000 wB97_C

   => wB97_X Functional <=



    GGA   =           TRUE
    Meta  =          FALSE
    LRC   =           TRUE
    Alpha =   1.000000E+00
    Omega =   4.000000E-01

   => wB97_C Functional <=



    GGA   =           TRUE
    Meta  =          FALSE
    LRC   =          FALSE
    Alpha =   1.000000E+00
    Omega =   0.000000E+00

   => Molecular Quadrature <=

    Spherical Scheme = Lebedev-Laikov
    Radial Scheme    =       Treutler
    Atomic Scheme    =       Treutler

    Spherical Points =            302
    Radial Points    =             99
    Total Points     =          86003
    Total Blocks     =            141
    Max Points       =            986
    Max Functions    =              7

  ==> Pre-Iterations <==

  Minimum eigenvalue in the overlap matrix is 3.7028400642E-01.
  Using Symmetric Orthogonalization.
  SCF Guess: Core (One-Electron) Hamiltonian.

  Initial RKS energy:   -54.63426083487276

   -------------------------------------------------------
    Irrep   Nso     Nmo     Nalpha   Nbeta   Ndocc  Nsocc
   -------------------------------------------------------
     A1         4       4       3       3       3       0
     A2         0       0       0       0       0       0
     B1         1       1       1       1       1       0
     B2         2       2       1       1       1       0
   -------------------------------------------------------
    Total       7       7       5       5       5       0
   -------------------------------------------------------

  ==> Integral Setup <==

  Building Direct Integral Objects...

  ==> Iterations <==

                        Total Energy        Delta E     Density RMS

   @RKS iter   1:   -73.57266721866768   -1.89384e+01   0.00000e+00 
   @RKS iter   2:   -75.13435606158717   -1.56169e+00   4.33882e-01 DIIS
   @RKS iter   3:   -75.31783710928345   -1.83481e-01   1.15603e-01 DIIS
   @RKS iter   4:   -75.31848375167687   -6.46642e-04   9.54562e-03 DIIS
   @RKS iter   5:   -75.31853474173398   -5.09901e-05   3.00135e-03 DIIS
   @RKS iter   6:   -75.31853558136464   -8.39631e-07   4.03035e-04 DIIS
   @RKS iter   7:   -75.31853558268202   -1.31737e-09   8.15079e-06 DIIS
   @RKS iter   8:   -75.31853558268230   -2.84217e-13   1.99162e-07 DIIS

  ==> Post-Iterations <==

	Orbital Energies (a.u.)
	-----------------------

	Doubly Occupied:                                                      

	   1A1   -18.702716     2A1    -1.047211     1B2    -0.547585  
	   3A1    -0.349276     1B1    -0.256665  

	Virtual:                                                              

	   4A1     0.445347     2B2     0.556393  

	Final Occupation by Irrep:
	         A1    A2    B1    B2 
	DOCC [     3,    0,    1,    1 ]

  Energy converged.

  @RKS Final Energy:   -75.31853558268230

   => Energetics <=

    Nuclear Repulsion Energy =          8.8014655299720683
    One-Electron Energy =            -121.6432895820808540
    Two-Electron Energy =              44.8829068551344861
    DFT Functional Energy =            -7.3596183857079893
    Empirical Dispersion Energy =       0.0000000000000000
    Total Energy =                    -75.3185355826823013

  ==> Properties <==

  Nuclear Dipole Moment: (a.u.)
     X:     0.0000      Y:     0.0000      Z:     1.0191

  Electronic Dipole Moment: (a.u.)
     X:     0.0000      Y:     0.0000      Z:    -0.3853

  Dipole Moment: (a.u.)
     X:     0.0000      Y:     0.0000      Z:     0.6338     Total:     0.6338

  Dipole Moment: (Debye)
     X:     0.0000      Y:     0.0000      Z:     1.6108     Total:     1.6108

  Quadrupole Moment: (Debye Ang)
    XX:    -6.1387     YY:    -4.3852     ZZ:    -5.2348
    XY:     0.0000     XZ:     0.0000     YZ:     0.0000

  Traceless Quadrupole Moment: (Debye Ang)
    XX:    -0.8858     YY:     0.8677     ZZ:     0.0181
    XY:     0.0000     XZ:     0.0000     YZ:     0.0000

  Mulliken Charges: (a.u.)
   Center  Symbol    Alpha    Beta     Spin     Total
       1     O     4.15992  4.15992  0.00000 -0.31985
       2     H     0.42004  0.42004  0.00000  0.15992
       3     H     0.42004  0.42004  0.00000  0.15992

   Total alpha =  5.00000, Total beta =  5.00000, Total charge =  0.00000


  Saving occupied orbitals to File 180.

*** tstop() called on lawn-143-215-103-161.lawn.gatech.edu at Fri Apr 27 13:56:40 2012
Module time:
	user time   =       5.19 seconds =       0.09 minutes
	system time =       0.05 seconds =       0.00 minutes
	total time  =          5 seconds =       0.08 minutes
Total time:
	user time   =      14.94 seconds =       0.25 minutes
	system time =       0.20 seconds =       0.00 minutes
	total time  =         15 seconds =       0.25 minutes

*** tstart() called on lawn-143-215-103-161.lawn.gatech.edu
*** at Fri Apr 27 13:56:40 2012


         ---------------------------------------------------------
                                   SCF
            by Justin Turney, Rob Parrish, and Andy Simmonett
                              RKS Reference
                        1 Threads,    250 MiB Core
         ---------------------------------------------------------

  ==> Geometry <==

    Molecular point group: c2v

    Geometry (in Angstrom), charge = 0, multiplicity = 1:

       Center              X                  Y                   Z       
    ------------   -----------------  -----------------  -----------------
           O          0.000000000000     0.000000000000    -0.068516219310
           H          0.000000000000    -0.790689573744     0.543701060724
           H          0.000000000000     0.790689573744     0.543701060724

  Running in c2v symmetry.

  Nuclear repulsion =    8.801465529972068

  Charge       = 0
  Multiplicity = 1
  Electrons    = 10
  Nalpha       = 5
  Nbeta        = 5

  ==> Algorithm <==

  SCF Algorithm Type is DIRECT.
  DIIS enabled.
  MOM disabled.
  Fractional occupation disabled.
  Guess Type is CORE.
  Energy threshold   = 1.00e-08
  Density threshold  = 1.00e-08
  Integral threshold = 0.00e+00

  ==> Primary Basis <==

  -AO BASIS SET INFORMATION:
    Name                   = sto-3g
    Total number of shells = 5
    Number of primitives   = 15
    Number of AO           = 7
    Number of SO           = 7
    Maximum AM             = 1
    Spherical Harmonics    = TRUE

  -Contraction Scheme:
    Atom   Type   All Primitives // Shells:
   ------ ------ --------------------------
       1     O     6s 3p // 2s 1p 
       2     H     3s // 1s 
       3     H     3s // 1s 

  ==> DFT Potential <==

   => wB97X Composite Functional <= 

    Parameterized Hybrid LRC B97 GGA XC Functional

    J.-D. Chai and M. Head-Gordon, J. Chem. Phys., 128, 084106, 2008

    Points   =           5000
    Deriv    =              1
    GGA      =           TRUE
    Meta     =          FALSE

    X_LRC    =           TRUE
    X_Hybrid =           TRUE
    X_Alpha  =   1.577060E-01
    X_Omega  =   3.000000E-01
    C_LRC    =          FALSE
    C_Hybrid =          FALSE
    C_Alpha  =   0.000000E+00
    C_Omega  =   0.000000E+00

   => Exchange Functionals <=

    1.0000 wB97X_X [\omega = 0.3000]
    0.8423 HF,LR [\omega = 0.3000]
    0.1577    HF 

   => Correlation Functionals <=

    1.0000 wB97X_C

   => wB97X_X Functional <=



    GGA   =           TRUE
    Meta  =          FALSE
    LRC   =           TRUE
    Alpha =   1.187234E+00
    Omega =   3.000000E-01

   => wB97X_C Functional <=



    GGA   =           TRUE
    Meta  =          FALSE
    LRC   =          FALSE
    Alpha =   1.000000E+00
    Omega =   0.000000E+00

   => Molecular Quadrature <=

    Spherical Scheme = Lebedev-Laikov
    Radial Scheme    =       Treutler
    Atomic Scheme    =       Treutler

    Spherical Points =            302
    Radial Points    =             99
    Total Points     =          86003
    Total Blocks     =            141
    Max Points       =            986
    Max Functions    =              7

  ==> Pre-Iterations <==

  Minimum eigenvalue in the overlap matrix is 3.7028400642E-01.
  Using Symmetric Orthogonalization.
  SCF Guess: Core (One-Electron) Hamiltonian.

  Initial RKS energy:   -54.63426083487276

   -------------------------------------------------------
    Irrep   Nso     Nmo     Nalpha   Nbeta   Ndocc  Nsocc
   -------------------------------------------------------
     A1         4       4       3       3       3       0
     A2         0       0       0       0       0       0
     B1         1       1       1       1       1       0
     B2         2       2       1       1       1       0
   -------------------------------------------------------
    Total       7       7       5       5       5       0
   -------------------------------------------------------

  ==> Integral Setup <==

  Building Direct Integral Objects...

  ==> Iterations <==

                        Total Energy        Delta E     Density RMS

   @RKS iter   1:   -73.58121222370657   -1.89470e+01   0.00000e+00 
   @RKS iter   2:   -75.12094358354244   -1.53973e+00   4.34114e-01 DIIS
   @RKS iter   3:   -75.31203264286246   -1.91089e-01   1.20620e-01 DIIS
   @RKS iter   4:   -75.31277143973938   -7.38797e-04   9.50937e-03 DIIS
   @RKS iter   5:   -75.31282070434888   -4.92646e-05   2.96400e-03 DIIS
   @RKS iter   6:   -75.31282139046692   -6.86118e-07   3.63357e-04 DIIS
   @RKS iter   7:   -75.31282139116996   -7.03039e-10   6.02211e-06 DIIS
   @RKS iter   8:   -75.31282139117003   -7.10543e-14   1.22858e-07 DIIS

  ==> Post-Iterations <==

	Orbital Energies (a.u.)
	-----------------------

	Doubly Occupied:                                                      

	   1A1   -18.901907     2A1    -1.039660     1B2    -0.535889  
	   3A1    -0.342151     1B1    -0.251870  

	Virtual:                                                              

	   4A1     0.432876     2B2     0.543499  

	Final Occupation by Irrep:
	         A1    A2    B1    B2 
	DOCC [     3,    0,    1,    1 ]

  Energy converged.

  @RKS Final Energy:   -75.31282139117003

   => Energetics <=

    Nuclear Repulsion Energy =          8.8014655299720683
    One-Electron Energy =            -121.6688882845973296
    Two-Electron Energy =              44.1911228202415742
    DFT Functional Energy =            -6.6365214567863395
    Empirical Dispersion Energy =       0.0000000000000000
    Total Energy =                    -75.3128213911700328

  ==> Properties <==

  Nuclear Dipole Moment: (a.u.)
     X:     0.0000      Y:     0.0000      Z:     1.0191

  Electronic Dipole Moment: (a.u.)
     X:     0.0000      Y:     0.0000      Z:    -0.3793

  Dipole Moment: (a.u.)
     X:     0.0000      Y:     0.0000      Z:     0.6398     Total:     0.6398

  Dipole Moment: (Debye)
     X:     0.0000      Y:     0.0000      Z:     1.6261     Total:     1.6261

  Quadrupole Moment: (Debye Ang)
    XX:    -6.1350     YY:    -4.3589     ZZ:    -5.2202
    XY:     0.0000     XZ:     0.0000     YZ:     0.0000

  Traceless Quadrupole Moment: (Debye Ang)
    XX:    -0.8970     YY:     0.8792     ZZ:     0.0178
    XY:     0.0000     XZ:     0.0000     YZ:     0.0000

  Mulliken Charges: (a.u.)
   Center  Symbol    Alpha    Beta     Spin     Total
       1     O     4.16448  4.16448  0.00000 -0.32895
       2     H     0.41776  0.41776  0.00000  0.16448
       3     H     0.41776  0.41776  0.00000  0.16448

   Total alpha =  5.00000, Total beta =  5.00000, Total charge = -0.00000


  Saving occupied orbitals to File 180.

*** tstop() called on lawn-143-215-103-161.lawn.gatech.edu at Fri Apr 27 13:56:46 2012
Module time:
	user time   =       5.21 seconds =       0.09 minutes
	system time =       0.05 seconds =       0.00 minutes
	total time  =          6 seconds =       0.10 minutes
Total time:
	user time   =      20.15 seconds =       0.34 minutes
	system time =       0.25 seconds =       0.00 minutes
	total time  =         21 seconds =       0.35 minutes

*** tstart() called on lawn-143-215-103-161.lawn.gatech.edu
*** at Fri Apr 27 13:56:46 2012


         ---------------------------------------------------------
                                   SCF
            by Justin Turney, Rob Parrish, and Andy Simmonett
                              UKS Reference
                        1 Threads,    250 MiB Core
         ---------------------------------------------------------

  ==> Geometry <==

    Molecular point group: c2v

    Geometry (in Angstrom), charge = 0, multiplicity = 1:

       Center              X                  Y                   Z       
    ------------   -----------------  -----------------  -----------------
           O          0.000000000000     0.000000000000    -0.068516219310
           H          0.000000000000    -0.790689573744     0.543701060724
           H          0.000000000000     0.790689573744     0.543701060724

  Running in c2v symmetry.

  Nuclear repulsion =    8.801465529972068

  Charge       = 0
  Multiplicity = 1
  Electrons    = 10
  Nalpha       = 5
  Nbeta        = 5

  ==> Algorithm <==

  SCF Algorithm Type is DIRECT.
  DIIS enabled.
  MOM disabled.
  Fractional occupation disabled.
  Guess Type is CORE.
  Energy threshold   = 1.00e-08
  Density threshold  = 1.00e-08
  Integral threshold = 0.00e+00

  ==> Primary Basis <==

  -AO BASIS SET INFORMATION:
    Name                   = sto-3g
    Total number of shells = 5
    Number of primitives   = 15
    Number of AO           = 7
    Number of SO           = 7
    Maximum AM             = 1
    Spherical Harmonics    = TRUE

  -Contraction Scheme:
    Atom   Type   All Primitives // Shells:
   ------ ------ --------------------------
       1     O     6s 3p // 2s 1p 
       2     H     3s // 1s 
       3     H     3s // 1s 

  ==> DFT Potential <==

   => B88_X Composite Functional <= 

    Becke88 GGA Exchange

    A.D. Becke, Phys. Rev. A, 38(6):3098-3100, 1988

    Points   =           5000
    Deriv    =              1
    GGA      =           TRUE
    Meta     =          FALSE

    X_LRC    =          FALSE
    X_Hybrid =          FALSE
    X_Alpha  =   0.000000E+00
    X_Omega  =   0.000000E+00
    C_LRC    =          FALSE
    C_Hybrid =          FALSE
    C_Alpha  =   0.000000E+00
    C_Omega  =   0.000000E+00

   => Exchange Functionals <=

    1.0000 B88_X

   => Correlation Functionals <=


   => B88_X Functional <=

    Becke88 GGA Exchange

    A.D. Becke, Phys. Rev. A, 38(6):3098-3100, 1988

    GGA   =           TRUE
    Meta  =          FALSE
    LRC   =          FALSE
    Alpha =   1.000000E+00
    Omega =   0.000000E+00

   => Molecular Quadrature <=

    Spherical Scheme = Lebedev-Laikov
    Radial Scheme    =       Treutler
    Atomic Scheme    =       Treutler

    Spherical Points =            302
    Radial Points    =             99
    Total Points     =          86003
    Total Blocks     =            141
    Max Points       =            986
    Max Functions    =              7

  ==> Pre-Iterations <==

  Minimum eigenvalue in the overlap matrix is 3.7028400642E-01.
  Using Symmetric Orthogonalization.
  SCF Guess: Core (One-Electron) Hamiltonian.

  Initial UKS energy:   -54.63426083487276

   -------------------------------------------------------
    Irrep   Nso     Nmo     Nalpha   Nbeta   Ndocc  Nsocc
   -------------------------------------------------------
     A1         4       4       3       3       3       0
     A2         0       0       0       0       0       0
     B1         1       1       1       1       1       0
     B2         2       2       1       1       1       0
   -------------------------------------------------------
    Total       7       7       5       5       5       0
   -------------------------------------------------------

  ==> Integral Setup <==

  Building Direct Integral Objects...

  ==> Iterations <==

                        Total Energy        Delta E     Density RMS

   @UKS iter   1:   -73.16580766585555   -1.85315e+01   0.00000e+00 
   @UKS iter   2:   -74.08223230148754   -9.16425e-01   4.93372e-01 DIIS
   @UKS iter   3:   -74.94825820584715   -8.66026e-01   3.05956e-01 DIIS
   @UKS iter   4:   -74.94933514328609   -1.07694e-03   1.43803e-02 DIIS
   @UKS iter   5:   -74.94937098440650   -3.58411e-05   1.23335e-03 DIIS
   @UKS iter   6:   -74.94937498652882   -4.00212e-06   4.40530e-04 DIIS
   @UKS iter   7:   -74.94937516884360   -1.82315e-07   1.22512e-04 DIIS
   @UKS iter   8:   -74.94937516938485   -5.41249e-10   6.30273e-06 DIIS

  ==> Post-Iterations <==

   @Spin Contamination Metric:  -3.552713679E-15
   @S^2 Expected:                0.000000000E+00
   @S^2 Observed:               -3.552713679E-15
   @S   Expected:                0.000000000E+00
   @S   Observed:                0.000000000E+00

	Orbital Energies (a.u.)
	-----------------------

	Alpha Occupied:                                                       

	   1A1   -18.450318     2A1    -0.782593     1B2    -0.334067  
	   3A1    -0.129868     1B1    -0.029260  

	Alpha Virtual:                                                        

	   4A1     0.304317     2B2     0.410059  

	Beta Occupied:                                                        

	   1A1   -18.450318     2A1    -0.782593     1B2    -0.334067  
	   3A1    -0.129868     1B1    -0.029260  

	Beta Virtual:                                                         

	   4A1     0.304317     2B2     0.410059  

	Final Occupation by Irrep:
	         A1    A2    B1    B2 
	DOCC [     3,    0,    1,    1 ]
	SOCC [     0,    0,    0,    0 ]

  Energy converged.

  @UKS Final Energy:   -74.94937516938485

   => Energetics <=

    Nuclear Repulsion Energy =          8.8014655299720683
    One-Electron Energy =            -121.5672351108948135
    Two-Electron Energy =              46.8564144436162451
    DFT Functional Energy =            -9.0400200320783455
    Empirical Dispersion Energy =       0.0000000000000000
    Total Energy =                    -74.9493751693848509

  ==> Properties <==

  Nuclear Dipole Moment: (a.u.)
     X:     0.0000      Y:     0.0000      Z:     1.0191

  Electronic Dipole Moment: (a.u.)
     X:     0.0000      Y:     0.0000      Z:    -0.4303

  Dipole Moment: (a.u.)
     X:     0.0000      Y:     0.0000      Z:     0.5888     Total:     0.5888

  Dipole Moment: (Debye)
     X:     0.0000      Y:     0.0000      Z:     1.4965     Total:     1.4965

  Quadrupole Moment: (Debye Ang)
    XX:    -6.1511     YY:    -4.4805     ZZ:    -5.2767
    XY:     0.0000     XZ:     0.0000     YZ:     0.0000

  Traceless Quadrupole Moment: (Debye Ang)
    XX:    -0.8483     YY:     0.8222     ZZ:     0.0261
    XY:     0.0000     XZ:     0.0000     YZ:     0.0000

  Mulliken Charges: (a.u.)
   Center  Symbol    Alpha    Beta     Spin     Total
       1     O     4.14905  4.14905  0.00000 -0.29810
       2     H     0.42547  0.42547  0.00000  0.14905
       3     H     0.42547  0.42547  0.00000  0.14905

   Total alpha =  5.00000, Total beta =  5.00000, Total charge = -0.00000


  Saving occupied orbitals to File 180.

*** tstop() called on lawn-143-215-103-161.lawn.gatech.edu at Fri Apr 27 13:56:47 2012
Module time:
	user time   =       1.66 seconds =       0.03 minutes
	system time =       0.07 seconds =       0.00 minutes
	total time  =          1 seconds =       0.02 minutes
Total time:
	user time   =      21.81 seconds =       0.36 minutes
	system time =       0.32 seconds =       0.01 minutes
	total time  =         22 seconds =       0.37 minutes

*** tstart() called on lawn-143-215-103-161.lawn.gatech.edu
*** at Fri Apr 27 13:56:47 2012


         ---------------------------------------------------------
                                   SCF
            by Justin Turney, Rob Parrish, and Andy Simmonett
                              UKS Reference
                        1 Threads,    250 MiB Core
         ---------------------------------------------------------

  ==> Geometry <==

    Molecular point group: c2v

    Geometry (in Angstrom), charge = 0, multiplicity = 1:

       Center              X                  Y                   Z       
    ------------   -----------------  -----------------  -----------------
           O          0.000000000000     0.000000000000    -0.068516219310
           H          0.000000000000    -0.790689573744     0.543701060724
           H          0.000000000000     0.790689573744     0.543701060724

  Running in c2v symmetry.

  Nuclear repulsion =    8.801465529972068

  Charge       = 0
  Multiplicity = 1
  Electrons    = 10
  Nalpha       = 5
  Nbeta        = 5

  ==> Algorithm <==

  SCF Algorithm Type is DIRECT.
  DIIS enabled.
  MOM disabled.
  Fractional occupation disabled.
  Guess Type is CORE.
  Energy threshold   = 1.00e-08
  Density threshold  = 1.00e-08
  Integral threshold = 0.00e+00

  ==> Primary Basis <==

  -AO BASIS SET INFORMATION:
    Name                   = sto-3g
    Total number of shells = 5
    Number of primitives   = 15
    Number of AO           = 7
    Number of SO           = 7
    Maximum AM             = 1
    Spherical Harmonics    = TRUE

  -Contraction Scheme:
    Atom   Type   All Primitives // Shells:
   ------ ------ --------------------------
       1     O     6s 3p // 2s 1p 
       2     H     3s // 1s 
       3     H     3s // 1s 

  ==> DFT Potential <==

   => B97-D Composite Functional <= 

    B97-D Pure-GGA Exchange-Correlation Functional

    S. Grimme, J. Comput. Chem., 27, 1787-1799, 2006

    Points   =           5000
    Deriv    =              1
    GGA      =           TRUE
    Meta     =          FALSE

    X_LRC    =          FALSE
    X_Hybrid =          FALSE
    X_Alpha  =   0.000000E+00
    X_Omega  =   0.000000E+00
    C_LRC    =          FALSE
    C_Hybrid =          FALSE
    C_Alpha  =   0.000000E+00
    C_Omega  =   0.000000E+00

   => Exchange Functionals <=

    1.0000 B97-D_X

   => Correlation Functionals <=

    1.0000 B97-D_C

   => B97-D_X Functional <=

    B97 Parameterized GGA Exchange

    A.D. Becke, J. Chem. Phys., 107(20), 8554-8560, 1997

    GGA   =           TRUE
    Meta  =          FALSE
    LRC   =          FALSE
    Alpha =   1.000000E+00
    Omega =   0.000000E+00

   => B97-D_C Functional <=



    GGA   =           TRUE
    Meta  =          FALSE
    LRC   =          FALSE
    Alpha =   1.000000E+00
    Omega =   0.000000E+00

   => -D2: Empirical Dispersion <=

    Grimme's -D2 Dispersion Correction

    Grimme, S. (2006),  J. Comp. Chem., 27: 1787-1799

    S6 =   1.250000E+00

   => Molecular Quadrature <=

    Spherical Scheme = Lebedev-Laikov
    Radial Scheme    =       Treutler
    Atomic Scheme    =       Treutler

    Spherical Points =            302
    Radial Points    =             99
    Total Points     =          86003
    Total Blocks     =            141
    Max Points       =            986
    Max Functions    =              7

  ==> Pre-Iterations <==

  Minimum eigenvalue in the overlap matrix is 3.7028400642E-01.
  Using Symmetric Orthogonalization.
  SCF Guess: Core (One-Electron) Hamiltonian.

  Initial UKS energy:   -54.63426083487276

   -------------------------------------------------------
    Irrep   Nso     Nmo     Nalpha   Nbeta   Ndocc  Nsocc
   -------------------------------------------------------
     A1         4       4       3       3       3       0
     A2         0       0       0       0       0       0
     B1         1       1       1       1       1       0
     B2         2       2       1       1       1       0
   -------------------------------------------------------
    Total       7       7       5       5       5       0
   -------------------------------------------------------

  ==> Integral Setup <==

  Building Direct Integral Objects...

  ==> Iterations <==

                        Total Energy        Delta E     Density RMS

   @UKS iter   1:   -73.83536991137488   -1.92011e+01   0.00000e+00 
   @UKS iter   2:   -74.70032642100475   -8.64957e-01   4.92377e-01 DIIS
   @UKS iter   3:   -75.56529404991649   -8.64968e-01   3.03608e-01 DIIS
   @UKS iter   4:   -75.56620841659638   -9.14367e-04   1.25397e-02 DIIS
   @UKS iter   5:   -75.56628957594833   -8.11594e-05   1.84307e-03 DIIS
   @UKS iter   6:   -75.56629854793276   -8.97198e-06   7.30695e-04 DIIS
   @UKS iter   7:   -75.56629865452742   -1.06595e-07   9.13751e-05 DIIS
   @UKS iter   8:   -75.56629865461404   -8.66294e-11   2.52609e-06 DIIS

  ==> Post-Iterations <==

   @Spin Contamination Metric:  -5.329070518E-15
   @S^2 Expected:                0.000000000E+00
   @S^2 Observed:               -5.329070518E-15
   @S   Expected:                0.000000000E+00
   @S   Observed:                0.000000000E+00

	Orbital Energies (a.u.)
	-----------------------

	Alpha Occupied:                                                       

	   1A1   -18.524263     2A1    -0.850186     1B2    -0.397179  
	   3A1    -0.196529     1B1    -0.098302  

	Alpha Virtual:                                                        

	   4A1     0.243799     2B2     0.348431  

	Beta Occupied:                                                        

	   1A1   -18.524263     2A1    -0.850186     1B2    -0.397179  
	   3A1    -0.196529     1B1    -0.098302  

	Beta Virtual:                                                         

	   4A1     0.243799     2B2     0.348431  

	Final Occupation by Irrep:
	         A1    A2    B1    B2 
	DOCC [     3,    0,    1,    1 ]
	SOCC [     0,    0,    0,    0 ]

  Energy converged.

  @UKS Final Energy:   -75.56629865461404

   => Energetics <=

    Nuclear Repulsion Energy =          8.8014655299720683
    One-Electron Energy =            -121.6479010420717231
    Two-Electron Energy =              46.9453014986077051
    DFT Functional Energy =            -9.6650986685729006
    Empirical Dispersion Energy =      -0.0000659725491935
    Total Energy =                    -75.5662986546140445

  ==> Properties <==

  Nuclear Dipole Moment: (a.u.)
     X:     0.0000      Y:     0.0000      Z:     1.0191

  Electronic Dipole Moment: (a.u.)
     X:     0.0000      Y:     0.0000      Z:    -0.4048

  Dipole Moment: (a.u.)
     X:     0.0000      Y:     0.0000      Z:     0.6143     Total:     0.6143

  Dipole Moment: (Debye)
     X:     0.0000      Y:     0.0000      Z:     1.5614     Total:     1.5614

  Quadrupole Moment: (Debye Ang)
    XX:    -6.1397     YY:    -4.3943     ZZ:    -5.2312
    XY:     0.0000     XZ:     0.0000     YZ:     0.0000

  Traceless Quadrupole Moment: (Debye Ang)
    XX:    -0.8846     YY:     0.8607     ZZ:     0.0239
    XY:     0.0000     XZ:     0.0000     YZ:     0.0000

  Mulliken Charges: (a.u.)
   Center  Symbol    Alpha    Beta     Spin     Total
       1     O     4.16273  4.16273  0.00000 -0.32546
       2     H     0.41864  0.41864  0.00000  0.16273
       3     H     0.41864  0.41864  0.00000  0.16273

   Total alpha =  5.00000, Total beta =  5.00000, Total charge = -0.00000


  Saving occupied orbitals to File 180.

*** tstop() called on lawn-143-215-103-161.lawn.gatech.edu at Fri Apr 27 13:56:53 2012
Module time:
	user time   =       5.19 seconds =       0.09 minutes
	system time =       0.08 seconds =       0.00 minutes
	total time  =          6 seconds =       0.10 minutes
Total time:
	user time   =      27.01 seconds =       0.45 minutes
	system time =       0.40 seconds =       0.01 minutes
	total time  =         28 seconds =       0.47 minutes

*** tstart() called on lawn-143-215-103-161.lawn.gatech.edu
*** at Fri Apr 27 13:56:53 2012


         ---------------------------------------------------------
                                   SCF
            by Justin Turney, Rob Parrish, and Andy Simmonett
                              UKS Reference
                        1 Threads,    250 MiB Core
         ---------------------------------------------------------

  ==> Geometry <==

    Molecular point group: c2v

    Geometry (in Angstrom), charge = 0, multiplicity = 1:

       Center              X                  Y                   Z       
    ------------   -----------------  -----------------  -----------------
           O          0.000000000000     0.000000000000    -0.068516219310
           H          0.000000000000    -0.790689573744     0.543701060724
           H          0.000000000000     0.790689573744     0.543701060724

  Running in c2v symmetry.

  Nuclear repulsion =    8.801465529972068

  Charge       = 0
  Multiplicity = 1
  Electrons    = 10
  Nalpha       = 5
  Nbeta        = 5

  ==> Algorithm <==

  SCF Algorithm Type is DIRECT.
  DIIS enabled.
  MOM disabled.
  Fractional occupation disabled.
  Guess Type is CORE.
  Energy threshold   = 1.00e-08
  Density threshold  = 1.00e-08
  Integral threshold = 0.00e+00

  ==> Primary Basis <==

  -AO BASIS SET INFORMATION:
    Name                   = sto-3g
    Total number of shells = 5
    Number of primitives   = 15
    Number of AO           = 7
    Number of SO           = 7
    Maximum AM             = 1
    Spherical Harmonics    = TRUE

  -Contraction Scheme:
    Atom   Type   All Primitives // Shells:
   ------ ------ --------------------------
       1     O     6s 3p // 2s 1p 
       2     H     3s // 1s 
       3     H     3s // 1s 

  ==> DFT Potential <==

   => B3LYP Composite Functional <= 

    B3LYP Hybrid-GGA Exchange-Correlation Functional

    P.J. Stephens et. al., J. Phys. Chem., 98, 11623-11627, 1994

    Points   =           5000
    Deriv    =              1
    GGA      =           TRUE
    Meta     =          FALSE

    X_LRC    =          FALSE
    X_Hybrid =           TRUE
    X_Alpha  =   2.000000E-01
    X_Omega  =   0.000000E+00
    C_LRC    =          FALSE
    C_Hybrid =          FALSE
    C_Alpha  =   0.000000E+00
    C_Omega  =   0.000000E+00

   => Exchange Functionals <=

    0.8000  B3_X
    0.2000    HF 

   => Correlation Functionals <=

    0.1900 VWN3RPA_C
    0.8100 LYP_C

   => B3_X Functional <=

    Becke88 GGA Exchange (B3LYP weighting)

    P.J. Stephens et. al., J. Phys. Chem., 98, 11623-11627, 1994

    GGA   =           TRUE
    Meta  =          FALSE
    LRC   =          FALSE
    Alpha =   1.000000E+00
    Omega =   0.000000E+00

   => VWN3RPA_C Functional <=

    VWN3 (RPA) LSDA Correlation

    S.H. Vosko, L. Wilk, and M. Nusair, Can. J. Phys., 58, 1200-1211, 1980

    GGA   =          FALSE
    Meta  =          FALSE
    LRC   =          FALSE
    Alpha =   1.900000E-01
    Omega =   0.000000E+00

   => LYP_C Functional <=

    LYP Correlation

    B. Miehlich et. al., Chem. Phys. Lett., 157(3), 200-206 (1989)

    GGA   =           TRUE
    Meta  =          FALSE
    LRC   =          FALSE
    Alpha =   8.100000E-01
    Omega =   0.000000E+00

   => Molecular Quadrature <=

    Spherical Scheme = Lebedev-Laikov
    Radial Scheme    =       Treutler
    Atomic Scheme    =       Treutler

    Spherical Points =            302
    Radial Points    =             99
    Total Points     =          86003
    Total Blocks     =            141
    Max Points       =            986
    Max Functions    =              7

  ==> Pre-Iterations <==

  Minimum eigenvalue in the overlap matrix is 3.7028400642E-01.
  Using Symmetric Orthogonalization.
  SCF Guess: Core (One-Electron) Hamiltonian.

  Initial UKS energy:   -54.63426083487276

   -------------------------------------------------------
    Irrep   Nso     Nmo     Nalpha   Nbeta   Ndocc  Nsocc
   -------------------------------------------------------
     A1         4       4       3       3       3       0
     A2         0       0       0       0       0       0
     B1         1       1       1       1       1       0
     B2         2       2       1       1       1       0
   -------------------------------------------------------
    Total       7       7       5       5       5       0
   -------------------------------------------------------

  ==> Integral Setup <==

  Building Direct Integral Objects...

  ==> Iterations <==

                        Total Energy        Delta E     Density RMS

   @UKS iter   1:   -73.57669723431769   -1.89424e+01   0.00000e+00 
   @UKS iter   2:   -74.52405732960561   -9.47360e-01   4.86899e-01 DIIS
   @UKS iter   3:   -75.31685621431566   -7.92799e-01   2.71116e-01 DIIS
   @UKS iter   4:   -75.31950622104011   -2.65001e-03   1.16114e-02 DIIS
   @UKS iter   5:   -75.31970190488433   -1.95684e-04   3.24773e-03 DIIS
   @UKS iter   6:   -75.31971283598149   -1.09311e-05   6.52363e-04 DIIS
   @UKS iter   7:   -75.31971405973998   -1.22376e-06   3.04800e-04 DIIS
   @UKS iter   8:   -75.31971406103413   -1.29415e-09   9.88666e-06 DIIS

  ==> Post-Iterations <==

   @Spin Contamination Metric:  -8.881784197E-16
   @S^2 Expected:                0.000000000E+00
   @S^2 Observed:               -8.881784197E-16
   @S   Expected:                0.000000000E+00
   @S   Observed:                0.000000000E+00

	Orbital Energies (a.u.)
	-----------------------

	Alpha Occupied:                                                       

	   1A1   -18.840683     2A1    -0.916512     1B2    -0.427084  
	   3A1    -0.233392     1B1    -0.142454  

	Alpha Virtual:                                                        

	   4A1     0.317930     2B2     0.427495  

	Beta Occupied:                                                        

	   1A1   -18.840683     2A1    -0.916512     1B2    -0.427084  
	   3A1    -0.233392     1B1    -0.142454  

	Beta Virtual:                                                         

	   4A1     0.317930     2B2     0.427495  

	Final Occupation by Irrep:
	         A1    A2    B1    B2 
	DOCC [     3,    0,    1,    1 ]
	SOCC [     0,    0,    0,    0 ]

  Energy converged.

  @UKS Final Energy:   -75.31971406103413

   => Energetics <=

    Nuclear Repulsion Energy =          8.8014655299720683
    One-Electron Energy =            -121.6673399481539661
    Two-Electron Energy =              45.1530456745111337
    DFT Functional Energy =            -7.6068853173633588
    Empirical Dispersion Energy =       0.0000000000000000
    Total Energy =                    -75.3197140610341336

  ==> Properties <==

  Nuclear Dipole Moment: (a.u.)
     X:     0.0000      Y:     0.0000      Z:     1.0191

  Electronic Dipole Moment: (a.u.)
     X:     0.0000      Y:     0.0000      Z:    -0.3867

  Dipole Moment: (a.u.)
     X:     0.0000      Y:     0.0000      Z:     0.6324     Total:     0.6324

  Dipole Moment: (Debye)
     X:     0.0000      Y:     0.0000      Z:     1.6073     Total:     1.6073

  Quadrupole Moment: (Debye Ang)
    XX:    -6.1357     YY:    -4.3649     ZZ:    -5.2208
    XY:     0.0000     XZ:     0.0000     YZ:     0.0000

  Traceless Quadrupole Moment: (Debye Ang)
    XX:    -0.8952     YY:     0.8755     ZZ:     0.0197
    XY:     0.0000     XZ:     0.0000     YZ:     0.0000

  Mulliken Charges: (a.u.)
   Center  Symbol    Alpha    Beta     Spin     Total
       1     O     4.16492  4.16492 -0.00000 -0.32983
       2     H     0.41754  0.41754  0.00000  0.16492
       3     H     0.41754  0.41754  0.00000  0.16492

   Total alpha =  5.00000, Total beta =  5.00000, Total charge =  0.00000


  Saving occupied orbitals to File 180.

*** tstop() called on lawn-143-215-103-161.lawn.gatech.edu at Fri Apr 27 13:56:57 2012
Module time:
	user time   =       3.92 seconds =       0.07 minutes
	system time =       0.06 seconds =       0.00 minutes
	total time  =          4 seconds =       0.07 minutes
Total time:
	user time   =      30.93 seconds =       0.52 minutes
	system time =       0.46 seconds =       0.01 minutes
	total time  =         32 seconds =       0.53 minutes

*** tstart() called on lawn-143-215-103-161.lawn.gatech.edu
*** at Fri Apr 27 13:56:57 2012


         ---------------------------------------------------------
                                   SCF
            by Justin Turney, Rob Parrish, and Andy Simmonett
                              UKS Reference
                        1 Threads,    250 MiB Core
         ---------------------------------------------------------

  ==> Geometry <==

    Molecular point group: c2v

    Geometry (in Angstrom), charge = 0, multiplicity = 1:

       Center              X                  Y                   Z       
    ------------   -----------------  -----------------  -----------------
           O          0.000000000000     0.000000000000    -0.068516219310
           H          0.000000000000    -0.790689573744     0.543701060724
           H          0.000000000000     0.790689573744     0.543701060724

  Running in c2v symmetry.

  Nuclear repulsion =    8.801465529972068

  Charge       = 0
  Multiplicity = 1
  Electrons    = 10
  Nalpha       = 5
  Nbeta        = 5

  ==> Algorithm <==

  SCF Algorithm Type is DIRECT.
  DIIS enabled.
  MOM disabled.
  Fractional occupation disabled.
  Guess Type is CORE.
  Energy threshold   = 1.00e-08
  Density threshold  = 1.00e-08
  Integral threshold = 0.00e+00

  ==> Primary Basis <==

  -AO BASIS SET INFORMATION:
    Name                   = sto-3g
    Total number of shells = 5
    Number of primitives   = 15
    Number of AO           = 7
    Number of SO           = 7
    Maximum AM             = 1
    Spherical Harmonics    = TRUE

  -Contraction Scheme:
    Atom   Type   All Primitives // Shells:
   ------ ------ --------------------------
       1     O     6s 3p // 2s 1p 
       2     H     3s // 1s 
       3     H     3s // 1s 

  ==> DFT Potential <==

   => wB97 Composite Functional <= 

    Parameterized LRC B97 GGA XC Functional

    J.-D. Chai and M. Head-Gordon, J. Chem. Phys., 128, 084106, 2008

    Points   =           5000
    Deriv    =              1
    GGA      =           TRUE
    Meta     =          FALSE

    X_LRC    =           TRUE
    X_Hybrid =          FALSE
    X_Alpha  =   0.000000E+00
    X_Omega  =   4.000000E-01
    C_LRC    =          FALSE
    C_Hybrid =          FALSE
    C_Alpha  =   0.000000E+00
    C_Omega  =   0.000000E+00

   => Exchange Functionals <=

    1.0000 wB97_X [\omega = 0.4000]
    1.0000 HF,LR [\omega = 0.4000]

   => Correlation Functionals <=

    1.0000 wB97_C

   => wB97_X Functional <=



    GGA   =           TRUE
    Meta  =          FALSE
    LRC   =           TRUE
    Alpha =   1.000000E+00
    Omega =   4.000000E-01

   => wB97_C Functional <=



    GGA   =           TRUE
    Meta  =          FALSE
    LRC   =          FALSE
    Alpha =   1.000000E+00
    Omega =   0.000000E+00

   => Molecular Quadrature <=

    Spherical Scheme = Lebedev-Laikov
    Radial Scheme    =       Treutler
    Atomic Scheme    =       Treutler

    Spherical Points =            302
    Radial Points    =             99
    Total Points     =          86003
    Total Blocks     =            141
    Max Points       =            986
    Max Functions    =              7

  ==> Pre-Iterations <==

  Minimum eigenvalue in the overlap matrix is 3.7028400642E-01.
  Using Symmetric Orthogonalization.
  SCF Guess: Core (One-Electron) Hamiltonian.

  Initial UKS energy:   -54.63426083487276

   -------------------------------------------------------
    Irrep   Nso     Nmo     Nalpha   Nbeta   Ndocc  Nsocc
   -------------------------------------------------------
     A1         4       4       3       3       3       0
     A2         0       0       0       0       0       0
     B1         1       1       1       1       1       0
     B2         2       2       1       1       1       0
   -------------------------------------------------------
    Total       7       7       5       5       5       0
   -------------------------------------------------------

  ==> Integral Setup <==

  Building Direct Integral Objects...

  ==> Iterations <==

                        Total Energy        Delta E     Density RMS

   @UKS iter   1:   -73.57266721866768   -1.89384e+01   0.00000e+00 
   @UKS iter   2:   -75.13435606158717   -1.56169e+00   4.33882e-01 DIIS
   @UKS iter   3:   -75.31783710928346   -1.83481e-01   1.15603e-01 DIIS
   @UKS iter   4:   -75.31848375167681   -6.46642e-04   9.54562e-03 DIIS
   @UKS iter   5:   -75.31853474173401   -5.09901e-05   3.00135e-03 DIIS
   @UKS iter   6:   -75.31853558136470   -8.39631e-07   4.03035e-04 DIIS
   @UKS iter   7:   -75.31853558268197   -1.31728e-09   8.15079e-06 DIIS
   @UKS iter   8:   -75.31853558268232   -3.41061e-13   1.99162e-07 DIIS

  ==> Post-Iterations <==

   @Spin Contamination Metric:  -1.776356839E-15
   @S^2 Expected:                0.000000000E+00
   @S^2 Observed:               -1.776356839E-15
   @S   Expected:                0.000000000E+00
   @S   Observed:                0.000000000E+00

	Orbital Energies (a.u.)
	-----------------------

	Alpha Occupied:                                                       

	   1A1   -18.702716     2A1    -1.047211     1B2    -0.547585  
	   3A1    -0.349276     1B1    -0.256665  

	Alpha Virtual:                                                        

	   4A1     0.445347     2B2     0.556393  

	Beta Occupied:                                                        

	   1A1   -18.702716     2A1    -1.047211     1B2    -0.547585  
	   3A1    -0.349276     1B1    -0.256665  

	Beta Virtual:                                                         

	   4A1     0.445347     2B2     0.556393  

	Final Occupation by Irrep:
	         A1    A2    B1    B2 
	DOCC [     3,    0,    1,    1 ]
	SOCC [     0,    0,    0,    0 ]

  Energy converged.

  @UKS Final Energy:   -75.31853558268232

   => Energetics <=

    Nuclear Repulsion Energy =          8.8014655299720683
    One-Electron Energy =            -121.6432895820808824
    Two-Electron Energy =              44.8829068551345003
    DFT Functional Energy =            -7.3596183857079929
    Empirical Dispersion Energy =       0.0000000000000000
    Total Energy =                    -75.3185355826823013

  ==> Properties <==

  Nuclear Dipole Moment: (a.u.)
     X:     0.0000      Y:     0.0000      Z:     1.0191

  Electronic Dipole Moment: (a.u.)
     X:     0.0000      Y:     0.0000      Z:    -0.3853

  Dipole Moment: (a.u.)
     X:     0.0000      Y:     0.0000      Z:     0.6338     Total:     0.6338

  Dipole Moment: (Debye)
     X:     0.0000      Y:     0.0000      Z:     1.6108     Total:     1.6108

  Quadrupole Moment: (Debye Ang)
    XX:    -6.1387     YY:    -4.3852     ZZ:    -5.2348
    XY:     0.0000     XZ:     0.0000     YZ:     0.0000

  Traceless Quadrupole Moment: (Debye Ang)
    XX:    -0.8858     YY:     0.8677     ZZ:     0.0181
    XY:     0.0000     XZ:     0.0000     YZ:     0.0000

  Mulliken Charges: (a.u.)
   Center  Symbol    Alpha    Beta     Spin     Total
       1     O     4.15992  4.15992  0.00000 -0.31985
       2     H     0.42004  0.42004  0.00000  0.15992
       3     H     0.42004  0.42004  0.00000  0.15992

   Total alpha =  5.00000, Total beta =  5.00000, Total charge = -0.00000


  Saving occupied orbitals to File 180.

*** tstop() called on lawn-143-215-103-161.lawn.gatech.edu at Fri Apr 27 13:57:02 2012
Module time:
	user time   =       5.53 seconds =       0.09 minutes
	system time =       0.08 seconds =       0.00 minutes
	total time  =          5 seconds =       0.08 minutes
Total time:
	user time   =      36.46 seconds =       0.61 minutes
	system time =       0.54 seconds =       0.01 minutes
	total time  =         37 seconds =       0.62 minutes

*** tstart() called on lawn-143-215-103-161.lawn.gatech.edu
*** at Fri Apr 27 13:57:02 2012


         ---------------------------------------------------------
                                   SCF
            by Justin Turney, Rob Parrish, and Andy Simmonett
                              UKS Reference
                        1 Threads,    250 MiB Core
         ---------------------------------------------------------

  ==> Geometry <==

    Molecular point group: c2v

    Geometry (in Angstrom), charge = 0, multiplicity = 1:

       Center              X                  Y                   Z       
    ------------   -----------------  -----------------  -----------------
           O          0.000000000000     0.000000000000    -0.068516219310
           H          0.000000000000    -0.790689573744     0.543701060724
           H          0.000000000000     0.790689573744     0.543701060724

  Running in c2v symmetry.

  Nuclear repulsion =    8.801465529972068

  Charge       = 0
  Multiplicity = 1
  Electrons    = 10
  Nalpha       = 5
  Nbeta        = 5

  ==> Algorithm <==

  SCF Algorithm Type is DIRECT.
  DIIS enabled.
  MOM disabled.
  Fractional occupation disabled.
  Guess Type is CORE.
  Energy threshold   = 1.00e-08
  Density threshold  = 1.00e-08
  Integral threshold = 0.00e+00

  ==> Primary Basis <==

  -AO BASIS SET INFORMATION:
    Name                   = sto-3g
    Total number of shells = 5
    Number of primitives   = 15
    Number of AO           = 7
    Number of SO           = 7
    Maximum AM             = 1
    Spherical Harmonics    = TRUE

  -Contraction Scheme:
    Atom   Type   All Primitives // Shells:
   ------ ------ --------------------------
       1     O     6s 3p // 2s 1p 
       2     H     3s // 1s 
       3     H     3s // 1s 

  ==> DFT Potential <==

   => wB97X Composite Functional <= 

    Parameterized Hybrid LRC B97 GGA XC Functional

    J.-D. Chai and M. Head-Gordon, J. Chem. Phys., 128, 084106, 2008

    Points   =           5000
    Deriv    =              1
    GGA      =           TRUE
    Meta     =          FALSE

    X_LRC    =           TRUE
    X_Hybrid =           TRUE
    X_Alpha  =   1.577060E-01
    X_Omega  =   3.000000E-01
    C_LRC    =          FALSE
    C_Hybrid =          FALSE
    C_Alpha  =   0.000000E+00
    C_Omega  =   0.000000E+00

   => Exchange Functionals <=

    1.0000 wB97X_X [\omega = 0.3000]
    0.8423 HF,LR [\omega = 0.3000]
    0.1577    HF 

   => Correlation Functionals <=

    1.0000 wB97X_C

   => wB97X_X Functional <=



    GGA   =           TRUE
    Meta  =          FALSE
    LRC   =           TRUE
    Alpha =   1.187234E+00
    Omega =   3.000000E-01

   => wB97X_C Functional <=



    GGA   =           TRUE
    Meta  =          FALSE
    LRC   =          FALSE
    Alpha =   1.000000E+00
    Omega =   0.000000E+00

   => Molecular Quadrature <=

    Spherical Scheme = Lebedev-Laikov
    Radial Scheme    =       Treutler
    Atomic Scheme    =       Treutler

    Spherical Points =            302
    Radial Points    =             99
    Total Points     =          86003
    Total Blocks     =            141
    Max Points       =            986
    Max Functions    =              7

  ==> Pre-Iterations <==

  Minimum eigenvalue in the overlap matrix is 3.7028400642E-01.
  Using Symmetric Orthogonalization.
  SCF Guess: Core (One-Electron) Hamiltonian.

  Initial UKS energy:   -54.63426083487276

   -------------------------------------------------------
    Irrep   Nso     Nmo     Nalpha   Nbeta   Ndocc  Nsocc
   -------------------------------------------------------
     A1         4       4       3       3       3       0
     A2         0       0       0       0       0       0
     B1         1       1       1       1       1       0
     B2         2       2       1       1       1       0
   -------------------------------------------------------
    Total       7       7       5       5       5       0
   -------------------------------------------------------

  ==> Integral Setup <==

  Building Direct Integral Objects...

  ==> Iterations <==

                        Total Energy        Delta E     Density RMS

   @UKS iter   1:   -73.58121222370657   -1.89470e+01   0.00000e+00 
   @UKS iter   2:   -75.12094358354244   -1.53973e+00   4.34114e-01 DIIS
   @UKS iter   3:   -75.31203264286250   -1.91089e-01   1.20620e-01 DIIS
   @UKS iter   4:   -75.31277143973938   -7.38797e-04   9.50937e-03 DIIS
   @UKS iter   5:   -75.31282070434888   -4.92646e-05   2.96400e-03 DIIS
   @UKS iter   6:   -75.31282139046694   -6.86118e-07   3.63357e-04 DIIS
   @UKS iter   7:   -75.31282139116996   -7.03025e-10   6.02211e-06 DIIS
   @UKS iter   8:   -75.31282139117008   -1.13687e-13   1.22858e-07 DIIS

  ==> Post-Iterations <==

   @Spin Contamination Metric:   0.000000000E+00
   @S^2 Expected:                0.000000000E+00
   @S^2 Observed:                0.000000000E+00
   @S   Expected:                0.000000000E+00
   @S   Observed:                0.000000000E+00

	Orbital Energies (a.u.)
	-----------------------

	Alpha Occupied:                                                       

	   1A1   -18.901907     2A1    -1.039660     1B2    -0.535889  
	   3A1    -0.342151     1B1    -0.251870  

	Alpha Virtual:                                                        

	   4A1     0.432876     2B2     0.543499  

	Beta Occupied:                                                        

	   1A1   -18.901907     2A1    -1.039660     1B2    -0.535889  
	   3A1    -0.342151     1B1    -0.251870  

	Beta Virtual:                                                         

	   4A1     0.432876     2B2     0.543499  

	Final Occupation by Irrep:
	         A1    A2    B1    B2 
	DOCC [     3,    0,    1,    1 ]
	SOCC [     0,    0,    0,    0 ]

  Energy converged.

  @UKS Final Energy:   -75.31282139117008

   => Energetics <=

    Nuclear Repulsion Energy =          8.8014655299720683
    One-Electron Energy =            -121.6688882845965907
    Two-Electron Energy =              44.1911228202407429
    DFT Functional Energy =            -6.6365214567862827
    Empirical Dispersion Energy =       0.0000000000000000
    Total Energy =                    -75.3128213911700755

  ==> Properties <==

  Nuclear Dipole Moment: (a.u.)
     X:     0.0000      Y:     0.0000      Z:     1.0191

  Electronic Dipole Moment: (a.u.)
     X:     0.0000      Y:     0.0000      Z:    -0.3793

  Dipole Moment: (a.u.)
     X:     0.0000      Y:     0.0000      Z:     0.6398     Total:     0.6398

  Dipole Moment: (Debye)
     X:     0.0000      Y:     0.0000      Z:     1.6261     Total:     1.6261

  Quadrupole Moment: (Debye Ang)
    XX:    -6.1350     YY:    -4.3589     ZZ:    -5.2202
    XY:     0.0000     XZ:     0.0000     YZ:     0.0000

  Traceless Quadrupole Moment: (Debye Ang)
    XX:    -0.8970     YY:     0.8792     ZZ:     0.0178
    XY:     0.0000     XZ:     0.0000     YZ:     0.0000

  Mulliken Charges: (a.u.)
   Center  Symbol    Alpha    Beta     Spin     Total
       1     O     4.16448  4.16448  0.00000 -0.32895
       2     H     0.41776  0.41776  0.00000  0.16448
       3     H     0.41776  0.41776  0.00000  0.16448

   Total alpha =  5.00000, Total beta =  5.00000, Total charge =  0.00000


  Saving occupied orbitals to File 180.

*** tstop() called on lawn-143-215-103-161.lawn.gatech.edu at Fri Apr 27 13:57:08 2012
Module time:
	user time   =       5.52 seconds =       0.09 minutes
	system time =       0.07 seconds =       0.00 minutes
	total time  =          6 seconds =       0.10 minutes
Total time:
	user time   =      41.98 seconds =       0.70 minutes
	system time =       0.61 seconds =       0.01 minutes
	total time  =         43 seconds =       0.72 minutes

*** tstart() called on lawn-143-215-103-161.lawn.gatech.edu
*** at Fri Apr 27 13:57:08 2012


         ---------------------------------------------------------
                                   SCF
            by Justin Turney, Rob Parrish, and Andy Simmonett
                              UKS Reference
                        1 Threads,    250 MiB Core
[...]

  ==> Integral Setup <==

  Building Direct Integral Objects...

  ==> Iterations <==

                        Total Energy        Delta E     Density RMS

   @UKS iter   1:   -73.32237634161973   -1.66097e+01   0.00000e+00 
	Occupation by irrep:
	         A1    A2    B1    B2 
	DOCC [     3,    0,    1,    1 ]
	SOCC [     1,    0,    0,    0 ]

   @UKS iter   2:   -74.52857399416774   -1.20620e+00   4.33702e-01 DIIS
   @UKS iter   3:   -74.81437118254954   -2.85797e-01   1.38383e-01 DIIS
   @UKS iter   4:   -74.81536750698942   -9.96324e-04   7.46978e-03 DIIS
   @UKS iter   5:   -74.81544208069212   -7.45737e-05   1.26914e-03 DIIS
   @UKS iter   6:   -74.81544300462413   -9.23932e-07   1.97575e-04 DIIS
   @UKS iter   7:   -74.81544300468792   -6.37925e-11   2.18837e-06 DIIS
   @UKS iter   8:   -74.81544300468921   -1.29319e-12   3.72369e-07 DIIS
   @UKS iter   9:   -74.81544300468921    0.00000e+00   1.62710e-08 DIIS

  ==> Post-Iterations <==

   @Spin Contamination Metric:   1.512525504E-03
   @S^2 Expected:                7.500000000E-01
   @S^2 Observed:                7.515125255E-01
   @S   Expected:                5.000000000E-01
   @S   Observed:                5.000000000E-01

	Orbital Energies (a.u.)
	-----------------------

	Alpha Occupied:                                                       

	   1A1   -18.178971     2A1    -0.404352     1B2     0.066548  
	   3A1     0.222490     1B1     0.359164     4A1     0.697596  

	Alpha Virtual:                                                        

	   2B2     0.902012  

	Beta Occupied:                                                        

	   1A1   -18.161758     2A1    -0.356179     1B2     0.101210  
	   3A1     0.262426     1B1     0.382702  

	Beta Virtual:                                                         

	   4A1     0.887498     2B2     0.950725  

	Final Occupation by Irrep:
	         A1    A2    B1    B2 
	DOCC [     3,    0,    1,    1 ]
	SOCC [     1,    0,    0,    0 ]

  Energy converged.

  @UKS Final Energy:   -74.81544300468921

   => Energetics <=

    Nuclear Repulsion Energy =          8.8014655299720683
    One-Electron Energy =            -126.4194364523635983
    Two-Electron Energy =              50.9018189502701190
    DFT Functional Energy =            -8.0992910325678089
    Empirical Dispersion Energy =       0.0000000000000000
    Total Energy =                    -74.8154430046892287

  ==> Properties <==

  Nuclear Dipole Moment: (a.u.)
     X:     0.0000      Y:     0.0000      Z:     1.0191

  Electronic Dipole Moment: (a.u.)
     X:     0.0000      Y:     0.0000      Z:    -1.3847

  Dipole Moment: (a.u.)
     X:     0.0000      Y:     0.0000      Z:    -0.3656     Total:     0.3656

  Dipole Moment: (Debye)
     X:     0.0000      Y:     0.0000      Z:    -0.9293     Total:     0.9293

  Quadrupole Moment: (Debye Ang)
    XX:    -6.9703     YY:    -8.3231     ZZ:    -7.7161
    XY:     0.0000     XZ:     0.0000     YZ:     0.0000

  Traceless Quadrupole Moment: (Debye Ang)
    XX:     0.6995     YY:    -0.6533     ZZ:    -0.0463
    XY:     0.0000     XZ:     0.0000     YZ:     0.0000

  Mulliken Charges: (a.u.)
   Center  Symbol    Alpha    Beta     Spin     Total
       1     O     4.46617  4.03121  0.43496 -0.49738
       2     H     0.76691  0.48440  0.28252 -0.25131
       3     H     0.76691  0.48440  0.28252 -0.25131

   Total alpha =  6.00000, Total beta =  5.00000, Total charge = -1.00000


  Saving occupied orbitals to File 180.

*** tstop() called on lawn-143-215-103-161.lawn.gatech.edu at Fri Apr 27 13:57:48 2012
Module time:
	user time   =       4.74 seconds =       0.08 minutes
	system time =       0.08 seconds =       0.00 minutes
	total time  =          5 seconds =       0.08 minutes
Total time:
	user time   =      81.76 seconds =       1.36 minutes
	system time =       1.26 seconds =       0.02 minutes
	total time  =         83 seconds =       1.38 minutes

*** tstart() called on lawn-143-215-103-161.lawn.gatech.edu
*** at Fri Apr 27 13:57:48 2012


         ---------------------------------------------------------
                                   SCF
            by Justin Turney, Rob Parrish, and Andy Simmonett
                              UKS Reference
                        1 Threads,    250 MiB Core
         ---------------------------------------------------------

  ==> Geometry <==

    Molecular point group: c2v

    Geometry (in Angstrom), charge = -1, multiplicity = 2:

       Center              X                  Y                   Z       
    ------------   -----------------  -----------------  -----------------
           O          0.000000000000     0.000000000000    -0.068516219310
           H          0.000000000000    -0.790689573744     0.543701060724
           H          0.000000000000     0.790689573744     0.543701060724

  Running in c2v symmetry.

  Nuclear repulsion =    8.801465529972068

  Charge       = -1
  Multiplicity = 2
  Electrons    = 11
  Nalpha       = 6
  Nbeta        = 5

  ==> Algorithm <==

  SCF Algorithm Type is DIRECT.
  DIIS enabled.
  MOM disabled.
  Fractional occupation disabled.
  Guess Type is CORE.
  Energy threshold   = 1.00e-08
  Density threshold  = 1.00e-08
  Integral threshold = 0.00e+00

  ==> Primary Basis <==

  -AO BASIS SET INFORMATION:
    Name                   = sto-3g
    Total number of shells = 5
    Number of primitives   = 15
    Number of AO           = 7
    Number of SO           = 7
    Maximum AM             = 1
    Spherical Harmonics    = TRUE

  -Contraction Scheme:
    Atom   Type   All Primitives // Shells:
   ------ ------ --------------------------
       1     O     6s 3p // 2s 1p 
       2     H     3s // 1s 
       3     H     3s // 1s 

  ==> DFT Potential <==

   => wB97 Composite Functional <= 

    Parameterized LRC B97 GGA XC Functional

    J.-D. Chai and M. Head-Gordon, J. Chem. Phys., 128, 084106, 2008

    Points   =           5000
    Deriv    =              1
    GGA      =           TRUE
    Meta     =          FALSE

    X_LRC    =           TRUE
    X_Hybrid =          FALSE
    X_Alpha  =   0.000000E+00
    X_Omega  =   4.000000E-01
    C_LRC    =          FALSE
    C_Hybrid =          FALSE
    C_Alpha  =   0.000000E+00
    C_Omega  =   0.000000E+00

   => Exchange Functionals <=

    1.0000 wB97_X [\omega = 0.4000]
    1.0000 HF,LR [\omega = 0.4000]

   => Correlation Functionals <=

    1.0000 wB97_C

   => wB97_X Functional <=



    GGA   =           TRUE
    Meta  =          FALSE
    LRC   =           TRUE
    Alpha =   1.000000E+00
    Omega =   4.000000E-01

   => wB97_C Functional <=



    GGA   =           TRUE
    Meta  =          FALSE
    LRC   =          FALSE
    Alpha =   1.000000E+00
    Omega =   0.000000E+00

   => Molecular Quadrature <=

    Spherical Scheme = Lebedev-Laikov
    Radial Scheme    =       Treutler
    Atomic Scheme    =       Treutler

    Spherical Points =            302
    Radial Points    =             99
    Total Points     =          86003
    Total Blocks     =            141
    Max Points       =            986
    Max Functions    =              7

  ==> Pre-Iterations <==

  Minimum eigenvalue in the overlap matrix is 3.7028400642E-01.
  Using Symmetric Orthogonalization.
  SCF Guess: Core (One-Electron) Hamiltonian.

  Initial UKS energy:   -56.71270683299687

   -------------------------------------------------------
    Irrep   Nso     Nmo     Nalpha   Nbeta   Ndocc  Nsocc
   -------------------------------------------------------
     A1         4       4       3       3       3       0
     A2         0       0       0       0       0       0
     B1         1       1       1       1       1       0
     B2         2       2       2       1       1       1
   -------------------------------------------------------
    Total       7       7       6       5       5       1
   -------------------------------------------------------

  ==> Integral Setup <==

  Building Direct Integral Objects...

  ==> Iterations <==

                        Total Energy        Delta E     Density RMS

   @UKS iter   1:   -73.28509089549578   -1.65724e+01   0.00000e+00 
	Occupation by irrep:
	         A1    A2    B1    B2 
	DOCC [     3,    0,    1,    1 ]
	SOCC [     1,    0,    0,    0 ]

   @UKS iter   2:   -74.71584806086538   -1.43076e+00   3.89329e-01 DIIS
   @UKS iter   3:   -74.79003415889152   -7.41861e-02   6.17924e-02 DIIS
   @UKS iter   4:   -74.80012398458604   -1.00898e-02   1.33596e-02 DIIS
   @UKS iter   5:   -74.80109145511267   -9.67471e-04   4.78246e-03 DIIS
   @UKS iter   6:   -74.80109942489420   -7.96978e-06   5.95111e-04 DIIS
   @UKS iter   7:   -74.80109943754691   -1.26527e-08   9.12929e-06 DIIS
   @UKS iter   8:   -74.80109943788717   -3.40265e-10   6.76933e-06 DIIS
   @UKS iter   9:   -74.80109943788895   -1.77636e-12   2.47737e-07 DIIS

  ==> Post-Iterations <==

   @Spin Contamination Metric:   9.705639249E-04
   @S^2 Expected:                7.500000000E-01
   @S^2 Observed:                7.509705639E-01
   @S   Expected:                5.000000000E-01
   @S   Observed:                5.000000000E-01

	Orbital Energies (a.u.)
	-----------------------

	Alpha Occupied:                                                       

	   1A1   -18.035842     2A1    -0.526756     1B2    -0.057876  
	   3A1     0.108088     1B1     0.242944     4A1     0.595318  

	Alpha Virtual:                                                        

	   2B2     1.021909  

	Beta Occupied:                                                        

	   1A1   -18.028448     2A1    -0.488502     1B2    -0.022673  
	   3A1     0.142629     1B1     0.267589  

	Beta Virtual:                                                         

	   4A1     1.011646     2B2     1.075698  

	Final Occupation by Irrep:
	         A1    A2    B1    B2 
	DOCC [     3,    0,    1,    1 ]
	SOCC [     1,    0,    0,    0 ]

  Energy converged.

  @UKS Final Energy:   -74.80109943788895

   => Energetics <=

    Nuclear Repulsion Energy =          8.8014655299720683
    One-Electron Energy =            -126.3860020533114579
    Two-Electron Energy =              50.5397937935800883
    DFT Functional Energy =            -7.7563567081296414
    Empirical Dispersion Energy =       0.0000000000000000
    Total Energy =                    -74.8010994378889507

  ==> Properties <==

  Nuclear Dipole Moment: (a.u.)
     X:     0.0000      Y:     0.0000      Z:     1.0191

  Electronic Dipole Moment: (a.u.)
     X:     0.0000      Y:     0.0000      Z:    -1.3916

  Dipole Moment: (a.u.)
     X:     0.0000      Y:     0.0000      Z:    -0.3725     Total:     0.3725

  Dipole Moment: (Debye)
     X:     0.0000      Y:     0.0000      Z:    -0.9468     Total:     0.9468

  Quadrupole Moment: (Debye Ang)
    XX:    -6.9747     YY:    -8.3573     ZZ:    -7.7351
    XY:     0.0000     XZ:     0.0000     YZ:     0.0000

  Traceless Quadrupole Moment: (Debye Ang)
    XX:     0.7143     YY:    -0.6682     ZZ:    -0.0461
    XY:     0.0000     XZ:     0.0000     YZ:     0.0000

  Mulliken Charges: (a.u.)
   Center  Symbol    Alpha    Beta     Spin     Total
       1     O     4.46922  4.01652  0.45270 -0.48574
       2     H     0.76539  0.49174  0.27365 -0.25713
       3     H     0.76539  0.49174  0.27365 -0.25713

   Total alpha =  6.00000, Total beta =  5.00000, Total charge = -1.00000


  Saving occupied orbitals to File 180.

*** tstop() called on lawn-143-215-103-161.lawn.gatech.edu at Fri Apr 27 13:57:57 2012
Module time:
	user time   =       6.56 seconds =       0.11 minutes
	system time =       0.10 seconds =       0.00 minutes
	total time  =          9 seconds =       0.15 minutes
Total time:
	user time   =      88.32 seconds =       1.47 minutes
	system time =       1.36 seconds =       0.02 minutes
	total time  =         92 seconds =       1.53 minutes

*** tstart() called on lawn-143-215-103-161.lawn.gatech.edu
*** at Fri Apr 27 13:57:57 2012


         ---------------------------------------------------------
                                   SCF
            by Justin Turney, Rob Parrish, and Andy Simmonett
                              UKS Reference
                        1 Threads,    250 MiB Core
         ---------------------------------------------------------

  ==> Geometry <==

    Molecular point group: c2v

    Geometry (in Angstrom), charge = -1, multiplicity = 2:

       Center              X                  Y                   Z       
    ------------   -----------------  -----------------  -----------------
           O          0.000000000000     0.000000000000    -0.068516219310
           H          0.000000000000    -0.790689573744     0.543701060724
           H          0.000000000000     0.790689573744     0.543701060724

  Running in c2v symmetry.

  Nuclear repulsion =    8.801465529972068

  Charge       = -1
  Multiplicity = 2
  Electrons    = 11
  Nalpha       = 6
  Nbeta        = 5

  ==> Algorithm <==

  SCF Algorithm Type is DIRECT.
  DIIS enabled.
  MOM disabled.
  Fractional occupation disabled.
  Guess Type is CORE.
  Energy threshold   = 1.00e-08
  Density threshold  = 1.00e-08
  Integral threshold = 0.00e+00

  ==> Primary Basis <==

  -AO BASIS SET INFORMATION:
    Name                   = sto-3g
    Total number of shells = 5
    Number of primitives   = 15
    Number of AO           = 7
    Number of SO           = 7
    Maximum AM             = 1
    Spherical Harmonics    = TRUE

  -Contraction Scheme:
    Atom   Type   All Primitives // Shells:
   ------ ------ --------------------------
       1     O     6s 3p // 2s 1p 
       2     H     3s // 1s 
       3     H     3s // 1s 

  ==> DFT Potential <==

   => wB97X Composite Functional <= 

    Parameterized Hybrid LRC B97 GGA XC Functional

    J.-D. Chai and M. Head-Gordon, J. Chem. Phys., 128, 084106, 2008

    Points   =           5000
    Deriv    =              1
    GGA      =           TRUE
    Meta     =          FALSE

    X_LRC    =           TRUE
    X_Hybrid =           TRUE
    X_Alpha  =   1.577060E-01
    X_Omega  =   3.000000E-01
    C_LRC    =          FALSE
    C_Hybrid =          FALSE
    C_Alpha  =   0.000000E+00
    C_Omega  =   0.000000E+00

   => Exchange Functionals <=

    1.0000 wB97X_X [\omega = 0.3000]
    0.8423 HF,LR [\omega = 0.3000]
    0.1577    HF 

   => Correlation Functionals <=

    1.0000 wB97X_C

   => wB97X_X Functional <=



    GGA   =           TRUE
    Meta  =          FALSE
    LRC   =           TRUE
    Alpha =   1.187234E+00
    Omega =   3.000000E-01

   => wB97X_C Functional <=



    GGA   =           TRUE
    Meta  =          FALSE
    LRC   =          FALSE
    Alpha =   1.000000E+00
    Omega =   0.000000E+00

   => Molecular Quadrature <=

    Spherical Scheme = Lebedev-Laikov
    Radial Scheme    =       Treutler
    Atomic Scheme    =       Treutler

    Spherical Points =            302
    Radial Points    =             99
    Total Points     =          86003
    Total Blocks     =            141
    Max Points       =            986
    Max Functions    =              7

  ==> Pre-Iterations <==

  Minimum eigenvalue in the overlap matrix is 3.7028400642E-01.
  Using Symmetric Orthogonalization.
  SCF Guess: Core (One-Electron) Hamiltonian.

  Initial UKS energy:   -56.71270683299687

   -------------------------------------------------------
    Irrep   Nso     Nmo     Nalpha   Nbeta   Ndocc  Nsocc
   -------------------------------------------------------
     A1         4       4       3       3       3       0
     A2         0       0       0       0       0       0
     B1         1       1       1       1       1       0
     B2         2       2       2       1       1       1
   -------------------------------------------------------
    Total       7       7       6       5       5       1
   -------------------------------------------------------

  ==> Integral Setup <==

  Building Direct Integral Objects...

  ==> Iterations <==

                        Total Energy        Delta E     Density RMS

   @UKS iter   1:   -73.29374944571927   -1.65810e+01   0.00000e+00 
	Occupation by irrep:
	         A1    A2    B1    B2 
	DOCC [     3,    0,    1,    1 ]
	SOCC [     1,    0,    0,    0 ]

   @UKS iter   2:   -74.68800474147893   -1.39426e+00   4.01613e-01 DIIS
   @UKS iter   3:   -74.79060257963725   -1.02598e-01   7.69634e-02 DIIS
   @UKS iter   4:   -74.79694539090235   -6.34281e-03   1.12054e-02 DIIS
   @UKS iter   5:   -74.79777270413209   -8.27313e-04   4.05755e-03 DIIS
   @UKS iter   6:   -74.79778217435356   -9.47022e-06   5.90405e-04 DIIS
   @UKS iter   7:   -74.79778222165251   -4.72990e-08   2.53283e-05 DIIS
   @UKS iter   8:   -74.79778222371399   -2.06148e-09   1.10047e-05 DIIS
   @UKS iter   9:   -74.79778222371819   -4.19220e-12   4.10076e-07 DIIS

  ==> Post-Iterations <==

   @Spin Contamination Metric:   1.133669141E-03
   @S^2 Expected:                7.500000000E-01
   @S^2 Observed:                7.511336691E-01
   @S   Expected:                5.000000000E-01
   @S   Observed:                5.000000000E-01

	Orbital Energies (a.u.)
	-----------------------

	Alpha Occupied:                                                       

	   1A1   -18.241006     2A1    -0.526425     1B2    -0.046059  
	   3A1     0.112541     1B1     0.246817     4A1     0.602080  

	Alpha Virtual:                                                        

	   2B2     1.011374  

	Beta Occupied:                                                        

	   1A1   -18.227559     2A1    -0.481361     1B2    -0.010845  
	   3A1     0.150691     1B1     0.271777  

	Beta Virtual:                                                         

	   4A1     0.998395     2B2     1.062479  

	Final Occupation by Irrep:
	         A1    A2    B1    B2 
	DOCC [     3,    0,    1,    1 ]
	SOCC [     1,    0,    0,    0 ]

  Energy converged.

  @UKS Final Energy:   -74.79778222371819

   => Energetics <=

    Nuclear Repulsion Energy =          8.8014655299720683
    One-Electron Energy =            -126.4048805863379812
    Two-Electron Energy =              49.8166732093920714
    DFT Functional Energy =            -7.0110403767443330
    Empirical Dispersion Energy =       0.0000000000000000
    Total Energy =                    -74.7977822237181869

  ==> Properties <==

  Nuclear Dipole Moment: (a.u.)
     X:     0.0000      Y:     0.0000      Z:     1.0191

  Electronic Dipole Moment: (a.u.)
     X:     0.0000      Y:     0.0000      Z:    -1.3868

  Dipole Moment: (a.u.)
     X:     0.0000      Y:     0.0000      Z:    -0.3678     Total:     0.3678

  Dipole Moment: (Debye)
     X:     0.0000      Y:     0.0000      Z:    -0.9347     Total:     0.9347

  Quadrupole Moment: (Debye Ang)
    XX:    -6.9722     YY:    -8.3376     ZZ:    -7.7244
    XY:     0.0000     XZ:     0.0000     YZ:     0.0000

  Traceless Quadrupole Moment: (Debye Ang)
    XX:     0.7059     YY:    -0.6595     ZZ:    -0.0464
    XY:     0.0000     XZ:     0.0000     YZ:     0.0000

  Mulliken Charges: (a.u.)
   Center  Symbol    Alpha    Beta     Spin     Total
       1     O     4.46883  4.02332  0.44551 -0.49215
       2     H     0.76558  0.48834  0.27724 -0.25393
       3     H     0.76558  0.48834  0.27724 -0.25393

   Total alpha =  6.00000, Total beta =  5.00000, Total charge = -1.00000


  Saving occupied orbitals to File 180.

*** tstop() called on lawn-143-215-103-161.lawn.gatech.edu at Fri Apr 27 13:58:04 2012
Module time:
	user time   =       6.53 seconds =       0.11 minutes
	system time =       0.10 seconds =       0.00 minutes
	total time  =          7 seconds =       0.12 minutes
Total time:
	user time   =      94.85 seconds =       1.58 minutes
	system time =       1.46 seconds =       0.02 minutes
	total time  =         99 seconds =       1.65 minutes

*** PSI4 exiting successfully. Buy a developer a beer!
