    -----------------------------------------------------------------------
          PSI4: An Open-Source Ab Initio Electronic Structure Package
                              PSI 4.0.0-beta1 Driver

               Git: Rev 8268e5ba0276eef671d5bc4a44cf66fa46407463

    J. M. Turney, A. C. Simmonett, R. M. Parrish, E. G. Hohenstein,
    F. A. Evangelista, J. T. Fermann, B. J. Mintz, L. A. Burns, J. J. Wilke,
    M. L. Abrams, N. J. Russ, M. L. Leininger, C. L. Janssen, E. T. Seidl,
    W. D. Allen, H. F. Schaefer, R. A. King, E. F. Valeev, C. D. Sherrill,
    and T. D. Crawford, WIREs Comput. Mol. Sci., (2011) (doi: 10.1002/wcms.93)

                         Additional Contributions by
    A. E. DePrince, M. Saitow, U. Bozkaya, A. Yu. Sokolov
    -----------------------------------------------------------------------


    Using LocalCommunicator (Number of processes = 1)

    Memory level set to 256.000 MB

  ==> Input File <==

--------------------------------------------------------------------------
#! Benzene vertical singlet-triplet energy difference computation, using the
#! PubChem database to obtain the initial geometry, at the UHF an ROHF levels of theory.

memory 250 mb

molecule benz{
    pubchem:benzene
}

set {
   basis     DZ
   reference rhf
   max_energy_g_convergence 8
}

e_sing_rhf = optimize('scf')

benz.set_multiplicity(3)
#
# We could have specified a triplet C6H6 molecule with the following
#
#molecule benz {
#    0 3
#    pubchem:benzene
#}
set reference rohf
e_trip_rohf = energy('scf')
set reference uhf
e_trip_uhf  = energy('scf')

vertical_uhf  = psi_hartree2ev * (e_trip_uhf  - e_sing_rhf)
vertical_rohf = psi_hartree2ev * (e_trip_rohf - e_sing_rhf)
print "\nSinglet-Triplet gap (vertical, UHF)   = %8.2f eV\n" % vertical_uhf
print "\nSinglet-Triplet gap (vertical, ROHF)  = %8.2f eV\n" % vertical_rohf

enuc  =  203.65056339380897                                                          #TEST
erhf  = -230.64169476819367                                                          #TEST
erohf = -230.44750163089151                                                          #TEST
euhf  = -230.45330949687190                                                          #TEST
compare_values(enuc, benz.nuclear_repulsion_energy(), 3, "Nuclear repulsion energy") #TEST 
compare_values(erhf,  e_sing_rhf,  6, "Singlet benzene RHF energy")                  #TEST 
compare_values(erohf, e_trip_rohf, 6, "Triplet benzene UHF energy")                  #TEST 
compare_values(euhf,  e_trip_uhf,  6, "Triplet benzene ROHF energy")                 #TEST 
--------------------------------------------------------------------------

  Memory set to 250.000 MiB by Python script.

*** tstart() called on lawn-143-215-103-161.lawn.gatech.edu
*** at Fri Apr 27 13:55:28 2012

	There are an even number of electrons - assuming singlet.
	Specify the multiplicity with the MULTP option in the
	input if this is incorrect


         ---------------------------------------------------------
                                   SCF
            by Justin Turney, Rob Parrish, and Andy Simmonett
                              RHF Reference
                        1 Threads,    250 MiB Core
         ---------------------------------------------------------

  ==> Geometry <==

    Molecular point group: d2h

    Geometry (in Angstrom), charge = 0, multiplicity = 1:

       Center              X                  Y                   Z       
    ------------   -----------------  -----------------  -----------------
           C         -1.394814023431    -0.000000000000     0.000000000000
           C         -0.697441089778     1.207970230209     0.000000000000
           C         -0.697441089778    -1.207970230209     0.000000000000
           C          0.697441089778     1.207970230209     0.000000000000
           C          0.697441089778    -1.207970230209    -0.000000000000
           C          1.394814023431     0.000000000000     0.000000000000
           H         -2.480916576762    -0.000000000000     0.000000000000
           H         -1.240492371820     2.148551413522     0.000000000000
           H         -1.240492371820    -2.148551413522     0.000000000000
           H          1.240492371820     2.148551413522     0.000000000000
           H          1.240492371820    -2.148551413522     0.000000000000
           H          2.480916576762     0.000000000000     0.000000000000

  Running in d2h symmetry.

  Nuclear repulsion =  203.432213319373290

  Charge       = 0
  Multiplicity = 1
  Electrons    = 42
  Nalpha       = 21
  Nbeta        = 21

  ==> Algorithm <==

  SCF Algorithm Type is PK.
  DIIS enabled.
  MOM disabled.
  Fractional occupation disabled.
  Guess Type is CORE.
  Energy threshold   = 1.00e-08
  Density threshold  = 1.00e-08
  Integral threshold = 0.00e+00

  ==> Primary Basis <==

  Basis Set: DZ
    Number of shells: 48
    Number of basis function: 72
    Number of Cartesian functions: 72
    Spherical Harmonics?: true
    Max angular momentum: 1

  ==> Pre-Iterations <==

  Minimum eigenvalue in the overlap matrix is 1.3119056289E-03.
  Using Symmetric Orthogonalization.
  SCF Guess: Core (One-Electron) Hamiltonian.

  Initial RHF energy:  -173.89437199785087

   -------------------------------------------------------
    Irrep   Nso     Nmo     Nalpha   Nbeta   Ndocc  Nsocc
   -------------------------------------------------------
     Ag        18      18       5       5       5       0
     B1g       12      12       4       4       4       0
     B2g        4       4       1       1       1       0
     B3g        2       2       1       1       1       0
     Au         2       2       0       0       0       0
     B1u        4       4       1       1       1       0
     B2u       12      12       4       4       4       0
     B3u       18      18       5       5       5       0
   -------------------------------------------------------
    Total      72      72      21      21      21       0
   -------------------------------------------------------

  ==> Integral Setup <==

 MINTS: Wrapper to libmints.
   by Justin Turney

   Calculation information:
      Number of atoms:                  12
      Number of AO shells:              48
      Number of SO shells:              16
      Number of primitives:            108
      Number of atomic orbitals:        72
      Number of basis functions:        72

      Number of irreps:                  8
      Number of functions per irrep: [  18   12    4    2    2    4   12   18 ]

      Overlap, kinetic, potential, dipole, and quadrupole integrals
        stored in file 35.

      Computing two-electron integrals...done
      Computed 523454 non-zero two-electron integrals.
        Stored in file 33.

  ==> Iterations <==

                        Total Energy        Delta E     Density RMS

   @RHF iter   1:  -206.57960977910025   -3.26852e+01   0.00000e+00 
	Occupation by irrep:
	         Ag   B1g   B2g   B3g    Au   B1u   B2u   B3u 
	DOCC [     6,    3,    0,    0,    0,    0,    5,    7 ]

   @RHF iter   2:  -202.87122068775673    3.70839e+00   5.66036e+00 DIIS
	Occupation by irrep:
	         Ag   B1g   B2g   B3g    Au   B1u   B2u   B3u 
	DOCC [     6,    3,    1,    1,    0,    1,    4,    5 ]

   @RHF iter   3:  -230.11422839158988   -2.72430e+01   5.66234e+00 DIIS
   @RHF iter   4:  -230.63120893737741   -5.16981e-01   3.15731e-02 DIIS
   @RHF iter   5:  -230.63971113895414   -8.50220e-03   8.71505e-03 DIIS
   @RHF iter   6:  -230.64088332009507   -1.17218e-03   1.62302e-03 DIIS
   @RHF iter   7:  -230.64090502048944   -2.17004e-05   2.54463e-04 DIIS
   @RHF iter   8:  -230.64090541964347   -3.99154e-07   4.94879e-05 DIIS
   @RHF iter   9:  -230.64090542945749   -9.81402e-09   5.45485e-06 DIIS
   @RHF iter  10:  -230.64090543058884   -1.13135e-09   1.96165e-06 DIIS
   @RHF iter  11:  -230.64090543061960   -3.07523e-11   3.18416e-07 DIIS
   @RHF iter  12:  -230.64090543061999   -3.97904e-13   3.94736e-08 DIIS

  ==> Post-Iterations <==

	Orbital Energies (a.u.)
	-----------------------

	Doubly Occupied:                                                      

	   1Ag   -11.249820     1B2u  -11.249269     1B3u  -11.249265  
	   1B1g  -11.248065     2Ag   -11.248061     2B3u  -11.247475  
	   3Ag    -1.160087     3B3u   -1.021372     2B2u   -1.021356  
	   2B1g   -0.826720     4Ag    -0.826699     5Ag    -0.715828  
	   4B3u   -0.641309     3B2u   -0.622876     5B3u   -0.591690  
	   4B2u   -0.591688     1B1u   -0.505181     3B1g   -0.492683  
	   6Ag    -0.492650     1B2g   -0.340042     1B3g   -0.340024  

	Virtual:                                                              

	   1Au     0.126827     2B1u    0.126848     4B1g    0.278361  
	   7Ag     0.278361     8Ag     0.297675     5B2u    0.323647  
	   6B3u    0.323650     2B2g    0.325635     7B3u    0.329799  
	   8B3u    0.401738     6B2u    0.401746     7B2u    0.423596  
	   3B1u    0.476403     5B1g    0.490693     9Ag     0.490711  
	   3B2g    0.534897     2B3g    0.534907     6B1g    0.543810  
	  10Ag     0.543818     9B3u    0.566688    11Ag     0.587767  
	   2Au     0.626861     4B1u    0.626873     7B1g    0.647282  
	  12Ag     0.690799    10B3u    0.692337     8B2u    0.692361  
	   4B2g    0.711750     8B1g    0.872609    13Ag     0.872642  
	  11B3u    0.892960     9B2u    0.893027    12B3u    0.992155  
	   9B1g    1.093641    10B1g    1.172345    14Ag     1.172357  
	  13B3u    1.232172    10B2u    1.232220    14B3u    1.234113  
	  15Ag     1.397570    15B3u    1.466964    11B2u    1.466974  
	  11B1g    1.596843    16Ag     1.596860    16B3u    1.828683  
	  17Ag    23.668742    17B3u   23.932928    12B2u   23.932972  
	  12B1g   24.045421    18Ag    24.045454    18B3u   24.184612  

	Final Occupation by Irrep:
	         Ag   B1g   B2g   B3g    Au   B1u   B2u   B3u 
	DOCC [     6,    3,    1,    1,    0,    1,    4,    5 ]

  Energy converged.

  @RHF Final Energy:  -230.64090543061999

   => Energetics <=

    Nuclear Repulsion Energy =        203.4322133193732896
    One-Electron Energy =            -712.7819174179628590
    Two-Electron Energy =             278.7087986679696314
    DFT Functional Energy =             0.0000000000000000
    Empirical Dispersion Energy =       0.0000000000000000
    Total Energy =                   -230.6409054306199096

  ==> Properties <==

  Nuclear Dipole Moment: (a.u.)
     X:     0.0000      Y:     0.0000      Z:     0.0000

  Electronic Dipole Moment: (a.u.)
     X:     0.0000      Y:     0.0000      Z:     0.0000

  Dipole Moment: (a.u.)
     X:     0.0000      Y:     0.0000      Z:     0.0000     Total:     0.0000

  Dipole Moment: (Debye)
     X:     0.0000      Y:     0.0000      Z:     0.0000     Total:     0.0000


  Saving occupied orbitals to File 180.

*** tstop() called on lawn-143-215-103-161.lawn.gatech.edu at Fri Apr 27 13:55:30 2012
Module time:
	user time   =       1.99 seconds =       0.03 minutes
	system time =       0.04 seconds =       0.00 minutes
	total time  =          2 seconds =       0.03 minutes
Total time:
	user time   =       1.99 seconds =       0.03 minutes
	system time =       0.04 seconds =       0.00 minutes
	total time  =          2 seconds =       0.03 minutes

*** tstart() called on lawn-143-215-103-161.lawn.gatech.edu
*** at Fri Apr 27 13:55:30 2012

 DERIV: Derivative code.
   by Justin Turney

  Cartesian Displacement SALCs
  By SALC:
  Number of SALCs: 6, nirreps: 1
  Project out translations: False
  Project out rotations: False
	irrep = 0, ncomponent = 2
		0: atom 0, direction x, coef 0.707107
		1: atom 5, direction x, coef -0.707107
	irrep = 0, ncomponent = 4
		0: atom 1, direction x, coef 0.500000
		1: atom 2, direction x, coef 0.500000
		2: atom 3, direction x, coef -0.500000
		3: atom 4, direction x, coef -0.500000
	irrep = 0, ncomponent = 4
		0: atom 1, direction y, coef 0.500000
		1: atom 2, direction y, coef -0.500000
		2: atom 3, direction y, coef 0.500000
		3: atom 4, direction y, coef -0.500000
	irrep = 0, ncomponent = 2
		0: atom 6, direction x, coef 0.707107
		1: atom 11, direction x, coef -0.707107
	irrep = 0, ncomponent = 4
		0: atom 7, direction x, coef 0.500000
		1: atom 8, direction x, coef 0.500000
		2: atom 9, direction x, coef -0.500000
		3: atom 10, direction x, coef -0.500000
	irrep = 0, ncomponent = 4
		0: atom 7, direction y, coef 0.500000
		1: atom 8, direction y, coef -0.500000
		2: atom 9, direction y, coef 0.500000
		3: atom 10, direction y, coef -0.500000

  By Atomic Center:
  Number of atomic centers: 12
   Atomic Center 0:
	x component, size = 1
		0: salc 0, irrep 0, coef 0.707107
	y component, size = 0
	z component, size = 0
   Atomic Center 1:
	x component, size = 1
		0: salc 1, irrep 0, coef 0.500000
	y component, size = 1
		0: salc 2, irrep 0, coef 0.500000
	z component, size = 0
   Atomic Center 2:
	x component, size = 1
		0: salc 1, irrep 0, coef 0.500000
	y component, size = 1
		0: salc 2, irrep 0, coef -0.500000
	z component, size = 0
   Atomic Center 3:
	x component, size = 1
		0: salc 1, irrep 0, coef -0.500000
	y component, size = 1
		0: salc 2, irrep 0, coef 0.500000
	z component, size = 0
   Atomic Center 4:
	x component, size = 1
		0: salc 1, irrep 0, coef -0.500000
	y component, size = 1
		0: salc 2, irrep 0, coef -0.500000
	z component, size = 0
   Atomic Center 5:
	x component, size = 1
		0: salc 0, irrep 0, coef -0.707107
	y component, size = 0
	z component, size = 0
   Atomic Center 6:
	x component, size = 1
		0: salc 3, irrep 0, coef 0.707107
	y component, size = 0
	z component, size = 0
   Atomic Center 7:
	x component, size = 1
		0: salc 4, irrep 0, coef 0.500000
	y component, size = 1
		0: salc 5, irrep 0, coef 0.500000
	z component, size = 0
   Atomic Center 8:
	x component, size = 1
		0: salc 4, irrep 0, coef 0.500000
	y component, size = 1
		0: salc 5, irrep 0, coef -0.500000
	z component, size = 0
   Atomic Center 9:
	x component, size = 1
		0: salc 4, irrep 0, coef -0.500000
	y component, size = 1
		0: salc 5, irrep 0, coef 0.500000
	z component, size = 0
   Atomic Center 10:
	x component, size = 1
		0: salc 4, irrep 0, coef -0.500000
	y component, size = 1
		0: salc 5, irrep 0, coef -0.500000
	z component, size = 0
   Atomic Center 11:
	x component, size = 1
		0: salc 3, irrep 0, coef -0.707107
	y component, size = 0
	z component, size = 0

    Molecular point group: d2h

    Geometry (in Bohr), charge = 0, multiplicity = 1:

       Center              X                  Y                   Z       
    ------------   -----------------  -----------------  -----------------
           C         -2.635816510594    -0.000000000000     0.000000000000
           C         -1.317972653501     2.282732911774     0.000000000000
           C         -1.317972653501    -2.282732911774     0.000000000000
           C          1.317972653501     2.282732911774     0.000000000000
           C          1.317972653501    -2.282732911774    -0.000000000000
           C          2.635816510594     0.000000000000     0.000000000000
           H         -4.688252888617    -0.000000000000     0.000000000000
           H         -2.344190852674     4.060173753981     0.000000000000
           H         -2.344190852674    -4.060173753981     0.000000000000
           H          2.344190852674     4.060173753981     0.000000000000
           H          2.344190852674    -4.060173753981     0.000000000000
           H          4.688252888617     0.000000000000     0.000000000000


  -Nuclear Repulsion Energy 1st Derivatives:
     Atom            X                  Y                   Z
    ------   -----------------  -----------------  -----------------
       1        8.433033972721     0.000000000000    -0.000000000000
       2        4.216271507171    -7.303469560532     0.000000000000
       3        4.216271507171     7.303469560532     0.000000000000
       4       -4.216271507171    -7.303469560532     0.000000000000
       5       -4.216271507171     7.303469560532     0.000000000000
       6       -8.433033972721     0.000000000000     0.000000000000
       7        2.490641329577     0.000000000000    -0.000000000000
       8        1.245329801695    -2.156956562662     0.000000000000
       9        1.245329801695     2.156956562662     0.000000000000
      10       -1.245329801695    -2.156956562662     0.000000000000
      11       -1.245329801695     2.156956562662     0.000000000000
      12       -2.490641329577     0.000000000000    -0.000000000000


  -One-electron contribution to gradient:
     Atom            X                  Y                   Z
    ------   -----------------  -----------------  -----------------
       1      -17.249242545489     0.000000000000     0.000000000000
       2       -8.625161437750    14.939375289853     0.000000000000
       3       -8.625161437750   -14.939375289853     0.000000000000
       4        8.625161437750    14.939375289853     0.000000000000
       5        8.625161437750   -14.939375289853     0.000000000000
       6       17.249242545489     0.000000000000     0.000000000000
       7       -6.417877441925     0.000000000000     0.000000000000
       8       -3.209007249367     5.558145279836     0.000000000000
       9       -3.209007249367    -5.558145279836     0.000000000000
      10        3.209007249367     5.558145279836     0.000000000000
      11        3.209007249367    -5.558145279836     0.000000000000
      12        6.417877441925     0.000000000000     0.000000000000


  -Lagrangian contribution to gradient:
     Atom            X                  Y                   Z
    ------   -----------------  -----------------  -----------------
       1        0.079602010231     0.000000000000     0.000000000000
       2        0.039810243130    -0.068953069509     0.000000000000
       3        0.039810243130     0.068953069509     0.000000000000
       4       -0.039810243130    -0.068953069509     0.000000000000
       5       -0.039810243130     0.068953069509     0.000000000000
       6       -0.079602010231     0.000000000000     0.000000000000
       7        0.177576243760     0.000000000000     0.000000000000
       8        0.088796000759    -0.153795708193     0.000000000000
       9        0.088796000759     0.153795708193     0.000000000000
      10       -0.088796000759    -0.153795708193     0.000000000000
      11       -0.088796000759     0.153795708193     0.000000000000
      12       -0.177576243760     0.000000000000     0.000000000000


  -Two-electron contribution to gradient:
     Atom            X                  Y                   Z
    ------   -----------------  -----------------  -----------------
       1        8.748060183661     0.000000000000     0.000000000000
       2        4.374730335930    -7.576848967519     0.000000000000
       3        4.374730335930     7.576848967519     0.000000000000
       4       -4.374730335930    -7.576848967519     0.000000000000
       5       -4.374730335930     7.576848967519     0.000000000000
       6       -8.748060183661     0.000000000000     0.000000000000
       7        3.739620820372     0.000000000000     0.000000000000
       8        1.869864512201    -3.238702443329     0.000000000000
       9        1.869864512201     3.238702443329     0.000000000000
      10       -1.869864512201    -3.238702443329     0.000000000000
      11       -1.869864512201     3.238702443329     0.000000000000
      12       -3.739620820372     0.000000000000     0.000000000000


  -Total gradient:
     Atom            X                  Y                   Z
    ------   -----------------  -----------------  -----------------
       1        0.011453621124     0.000000000000    -0.000000000000
       2        0.005650648482    -0.009896307708     0.000000000000
       3        0.005650648482     0.009896307708     0.000000000000
       4       -0.005650648482    -0.009896307708     0.000000000000
       5       -0.005650648482     0.009896307708     0.000000000000
       6       -0.011453621124     0.000000000000     0.000000000000
       7       -0.010039048215     0.000000000000    -0.000000000000
       8       -0.005016934712     0.008690565651     0.000000000000
       9       -0.005016934712    -0.008690565651     0.000000000000
      10        0.005016934712     0.008690565651     0.000000000000
      11        0.005016934712    -0.008690565651     0.000000000000
      12        0.010039048215     0.000000000000    -0.000000000000


*** tstop() called on lawn-143-215-103-161.lawn.gatech.edu at Fri Apr 27 13:55:38 2012
Module time:
	user time   =       8.07 seconds =       0.13 minutes
	system time =       0.01 seconds =       0.00 minutes
	total time  =          8 seconds =       0.13 minutes
Total time:
	user time   =      10.06 seconds =       0.17 minutes
	system time =       0.05 seconds =       0.00 minutes
	total time  =         10 seconds =       0.17 minutes

			----------------------------------
			 OPTKING: for geometry optimizations  
			  - R.A. King,  Bethel University   
			------------------------------------

	Internal coordinates to be generated automatically.
	Detected frag with atoms:  1 2 3 4 5 6 7 8 9 10 11 12
	---Fragment 1 Bond Connectivity---
	 1 : 2 3 7
	 2 : 1 4 8
	 3 : 1 5 9
	 4 : 2 6 10
	 5 : 3 6 11
	 6 : 4 5 12
	 7 : 1
	 8 : 2
	 9 : 3
	 10 : 4
	 11 : 5
	 12 : 6

	---Fragment 1 Geometry and Gradient---
	 C          -2.6358165106       -0.0000000000        0.0000000000
	 C          -1.3179726535        2.2827329118        0.0000000000
	 C          -1.3179726535       -2.2827329118        0.0000000000
	 C           1.3179726535        2.2827329118        0.0000000000
	 C           1.3179726535       -2.2827329118       -0.0000000000
	 C           2.6358165106        0.0000000000        0.0000000000
	 H          -4.6882528886       -0.0000000000        0.0000000000
	 H          -2.3441908527        4.0601737540        0.0000000000
	 H          -2.3441908527       -4.0601737540        0.0000000000
	 H           2.3441908527        4.0601737540        0.0000000000
	 H           2.3441908527       -4.0601737540        0.0000000000
	 H           4.6882528886        0.0000000000        0.0000000000
	             0.0114536211        0.0000000000       -0.0000000000
	             0.0056506485       -0.0098963077        0.0000000000
	             0.0056506485        0.0098963077        0.0000000000
	            -0.0056506485       -0.0098963077        0.0000000000
	            -0.0056506485        0.0098963077        0.0000000000
	            -0.0114536211        0.0000000000        0.0000000000
	            -0.0100390482        0.0000000000       -0.0000000000
	            -0.0050169347        0.0086905657        0.0000000000
	            -0.0050169347       -0.0086905657        0.0000000000
	             0.0050169347        0.0086905657        0.0000000000
	             0.0050169347       -0.0086905657        0.0000000000
	             0.0100390482        0.0000000000       -0.0000000000

	Previous optimization step data not found.  Starting new optimization.

	---Fragment 1 Intrafragment Coordinates---
	 - Coordinate -           - BOHR/RAD -       - ANG/DEG -
	 R(1,2)           =         2.635827	       1.394819
	 R(1,3)           =         2.635827	       1.394819
	 R(1,7)           =         2.052436	       1.086103
	 R(2,4)           =         2.635945	       1.394882
	 R(2,8)           =         2.052418	       1.086093
	 R(3,5)           =         2.635945	       1.394882
	 R(3,9)           =         2.052418	       1.086093
	 R(4,6)           =         2.635827	       1.394819
	 R(4,10)          =         2.052418	       1.086093
	 R(5,6)           =         2.635827	       1.394819
	 R(5,11)          =         2.052418	       1.086093
	 R(6,12)          =         2.052436	       1.086103
	 B(1,2,4)         =         2.094365	     119.998257
	 B(1,2,8)         =         2.094420	     120.001447
	 B(1,3,5)         =         2.094365	     119.998257
	 B(1,3,9)         =         2.094420	     120.001447
	 B(2,1,3)         =         2.094456	     120.003487
	 B(2,1,7)         =         2.094365	     119.998257
	 B(2,4,6)         =         2.094365	     119.998257
	 B(2,4,10)        =         2.094400	     120.000296
	 B(3,1,7)         =         2.094365	     119.998257
	 B(3,5,6)         =         2.094365	     119.998257
	 B(3,5,11)        =         2.094400	     120.000296
	 B(4,2,8)         =         2.094400	     120.000296
	 B(4,6,5)         =         2.094456	     120.003487
	 B(4,6,12)        =         2.094365	     119.998257
	 B(5,3,9)         =         2.094400	     120.000296
	 B(5,6,12)        =         2.094365	     119.998257
	 B(6,4,10)        =         2.094420	     120.001447
	 B(6,5,11)        =         2.094420	     120.001447
	 D(1,2,4,6)       =        -0.000000	      -0.000000
	 D(1,2,4,10)      =        -3.141593	    -180.000000
	 D(1,3,5,6)       =         0.000000	       0.000000
	 D(1,3,5,11)      =         3.141593	     180.000000
	 D(2,1,3,5)       =        -0.000000	      -0.000000
	 D(2,1,3,9)       =         3.141593	     180.000000
	 D(2,4,6,5)       =         0.000000	       0.000000
	 D(2,4,6,12)      =        -3.141593	    -180.000000
	 D(3,1,2,4)       =         0.000000	       0.000000
	 D(3,1,2,8)       =        -3.141593	    -180.000000
	 D(3,5,6,4)       =        -0.000000	      -0.000000
	 D(3,5,6,12)      =         3.141593	     180.000000
	 D(4,2,1,7)       =        -3.141593	    -180.000000
	 D(4,6,5,11)      =        -3.141593	    -180.000000
	 D(5,3,1,7)       =         3.141593	     180.000000
	 D(5,6,4,10)      =         3.141593	     180.000000
	 D(6,4,2,8)       =         3.141593	     180.000000
	 D(6,5,3,9)       =        -3.141593	    -180.000000
	 D(7,1,2,8)       =         0.000000	       0.000000
	 D(7,1,3,9)       =        -0.000000	      -0.000000
	 D(8,2,4,10)      =         0.000000	       0.000000
	 D(9,3,5,11)      =        -0.000000	      -0.000000
	 D(10,4,6,12)     =        -0.000000	      -0.000000
	 D(11,5,6,12)     =         0.000000	       0.000000

	Current energy   :      -230.6409054306

	Generating empirical Hessian (Schlegel '84) for each fragment.
	Going to follow RFO solution 1.
	Projected energy change by RFO approximation:        -0.0008648487

	Back-transformation to cartesian coordinates...
	Successfully converged to displaced geometry.

	---Internal Coordinate Step in ANG or DEG, aJ/ANG or AJ/DEG ---
	 ----------------------------------------------------------------------
	 Coordinate             Previous        Force       Change         New 
	 ----------             --------       ------       ------       ------
	 R(1,2)          =      1.394819     0.011516     0.001585     1.396405
	 R(1,3)          =      1.394819     0.011516     0.001585     1.396405
	 R(1,7)          =      1.086103    -0.082709    -0.014990     1.071113
	 R(2,4)          =      1.394882     0.011048     0.001521     1.396403
	 R(2,8)          =      1.086093    -0.082673    -0.014983     1.071110
	 R(3,5)          =      1.394882     0.011048     0.001521     1.396403
	 R(3,9)          =      1.086093    -0.082673    -0.014983     1.071110
	 R(4,6)          =      1.394819     0.011516     0.001585     1.396405
	 R(4,10)         =      1.086093    -0.082673    -0.014983     1.071110
	 R(5,6)          =      1.394819     0.011516     0.001585     1.396405
	 R(5,11)         =      1.086093    -0.082673    -0.014983     1.071110
	 R(6,12)         =      1.086103    -0.082709    -0.014990     1.071113
	 B(1,2,4)        =    119.998257     0.000000     0.001436   119.999693
	 B(1,2,8)        =    120.001447    -0.000000    -0.000915   120.000532
	 B(1,3,5)        =    119.998257     0.000000     0.001436   119.999693
	 B(1,3,9)        =    120.001447    -0.000000    -0.000915   120.000532
	 B(2,1,3)        =    120.003487    -0.000001    -0.002872   120.000614
	 B(2,1,7)        =    119.998257     0.000000     0.001436   119.999693
	 B(2,4,6)        =    119.998257     0.000000     0.001436   119.999693
	 B(2,4,10)       =    120.000296    -0.000000    -0.000521   119.999775
	 B(3,1,7)        =    119.998257     0.000000     0.001436   119.999693
	 B(3,5,6)        =    119.998257     0.000000     0.001436   119.999693
	 B(3,5,11)       =    120.000296    -0.000000    -0.000521   119.999775
	 B(4,2,8)        =    120.000296    -0.000000    -0.000521   119.999775
	 B(4,6,5)        =    120.003487    -0.000001    -0.002872   120.000614
	 B(4,6,12)       =    119.998257     0.000000     0.001436   119.999693
	 B(5,3,9)        =    120.000296    -0.000000    -0.000521   119.999775
	 B(5,6,12)       =    119.998257     0.000000     0.001436   119.999693
	 B(6,4,10)       =    120.001447    -0.000000    -0.000915   120.000532
	 B(6,5,11)       =    120.001447    -0.000000    -0.000915   120.000532
	 D(1,2,4,6)      =     -0.000000    -0.000000     0.000000    -0.000000
	 D(1,2,4,10)     =   -180.000000     0.000000     0.000000  -180.000000
	 D(1,3,5,6)      =      0.000000    -0.000000     0.000000     0.000000
	 D(1,3,5,11)     =    180.000000    -0.000000     0.000000   180.000000
	 D(2,1,3,5)      =     -0.000000    -0.000000     0.000000    -0.000000
	 D(2,1,3,9)      =    180.000000    -0.000000     0.000000   180.000000
	 D(2,4,6,5)      =      0.000000     0.000000     0.000000     0.000000
	 D(2,4,6,12)     =   -180.000000     0.000000     0.000000  -180.000000
	 D(3,1,2,4)      =      0.000000     0.000000    -0.000000    -0.000000
	 D(3,1,2,8)      =   -180.000000    -0.000000     0.000000  -180.000000
	 D(3,5,6,4)      =     -0.000000    -0.000000     0.000000    -0.000000
	 D(3,5,6,12)     =    180.000000     0.000000     0.000000   180.000000
	 D(4,2,1,7)      =   -180.000000     0.000000     0.000000  -180.000000
	 D(4,6,5,11)     =   -180.000000    -0.000000     0.000000  -180.000000
	 D(5,3,1,7)      =    180.000000     0.000000     0.000000   180.000000
	 D(5,6,4,10)     =    180.000000    -0.000000     0.000000   180.000000
	 D(6,4,2,8)      =    180.000000    -0.000000     0.000000   180.000000
	 D(6,5,3,9)      =   -180.000000     0.000000     0.000000  -180.000000
	 D(7,1,2,8)      =      0.000000    -0.000000    -0.000000    -0.000000
	 D(7,1,3,9)      =     -0.000000    -0.000000     0.000000    -0.000000
	 D(8,2,4,10)     =      0.000000     0.000000    -0.000000    -0.000000
	 D(9,3,5,11)     =     -0.000000     0.000000     0.000000     0.000000
	 D(10,4,6,12)    =     -0.000000    -0.000000     0.000000    -0.000000
	 D(11,5,6,12)    =      0.000000     0.000000     0.000000     0.000000
	 ----------------------------------------------------------------------

  ==> Convergence Check <==

  Measures of convergence in internal coordinates in au.
  Criteria marked as inactive (o), active & met (*), and active & unmet ( ).
  --------------------------------------------------------------------------------------------- ~
   Step     Total Energy     Delta E     MAX Force     RMS Force      MAX Disp      RMS Disp    ~
  --------------------------------------------------------------------------------------------- ~
    Convergence Criteria    1.00e-08 *    3.00e-04 *             o    1.20e-03 *             o  ~
  --------------------------------------------------------------------------------------------- ~
      1    -230.64090543   -2.31e+02      1.00e-02      3.38e-03 o    2.83e-02      9.49e-03 o  ~
  ---------------------------------------------------------------------------------------------

	Writing optimization data to binary file.
	Structure for next step:
	Cartesian Geometry (au)
	    C    -2.6388087558  -0.0000000000   0.0000000000
	    C    -1.3194098826   2.2852941721   0.0000000000
	    C    -1.3194098826  -2.2852941721   0.0000000000
	    C     1.3194098826   2.2852941721   0.0000000000
	    C     1.3194098826  -2.2852941721   0.0000000000
	    C     2.6388087558   0.0000000000   0.0000000000
	    H    -4.6629181860  -0.0000000000   0.0000000000
	    H    -2.3314551035   4.0382238077  -0.0000000000
	    H    -2.3314551035  -4.0382238077   0.0000000000
	    H     2.3314551035   4.0382238077   0.0000000000
	    H     2.3314551035  -4.0382238077   0.0000000000
	    H     4.6629181860   0.0000000000  -0.0000000000
			--------------------------
			 OPTKING Finished Execution 
			--------------------------

*** tstart() called on lawn-143-215-103-161.lawn.gatech.edu
*** at Fri Apr 27 13:55:39 2012

	There are an even number of electrons - assuming singlet.
	Specify the multiplicity with the MULTP option in the
	input if this is incorrect


         ---------------------------------------------------------
                                   SCF
            by Justin Turney, Rob Parrish, and Andy Simmonett
                              RHF Reference
                        1 Threads,    250 MiB Core
         ---------------------------------------------------------

  ==> Geometry <==

    Molecular point group: d2h

    Geometry (in Angstrom), charge = 0, multiplicity = 1:

       Center              X                  Y                   Z       
    ------------   -----------------  -----------------  -----------------
           C         -1.396397451381    -0.000000000000     0.000000000000
           C         -0.698201638678     1.209325590792     0.000000000000
           C         -0.698201638678    -1.209325590792     0.000000000000
           C          0.698201638678     1.209325590792     0.000000000000
           C          0.698201638678    -1.209325590792     0.000000000000
           C          1.396397451381     0.000000000000     0.000000000000
           H         -2.467510029564    -0.000000000000     0.000000000000
           H         -1.233752903610     2.136936002198     0.000000000000
           H         -1.233752903610    -2.136936002198    -0.000000000000
           H          1.233752903610     2.136936002198     0.000000000000
           H          1.233752903610    -2.136936002198    -0.000000000000
           H          2.467510029564     0.000000000000     0.000000000000

  Running in d2h symmetry.

  Nuclear repulsion =  203.665804442349213

  Charge       = 0
  Multiplicity = 1
  Electrons    = 42
  Nalpha       = 21
  Nbeta        = 21

  ==> Algorithm <==

  SCF Algorithm Type is PK.
  DIIS enabled.
  MOM disabled.
  Fractional occupation disabled.
  Guess Type is CORE.
  Energy threshold   = 1.00e-08
  Density threshold  = 1.00e-08
  Integral threshold = 0.00e+00

  ==> Primary Basis <==

  Basis Set: DZ
    Number of shells: 48
    Number of basis function: 72
    Number of Cartesian functions: 72
    Spherical Harmonics?: true
    Max angular momentum: 1

  ==> Pre-Iterations <==

  Minimum eigenvalue in the overlap matrix is 1.3241082048E-03.
  Using Symmetric Orthogonalization.
  SCF Guess: Core (One-Electron) Hamiltonian.

  Initial RHF energy:  -173.67039563608057

   -------------------------------------------------------
    Irrep   Nso     Nmo     Nalpha   Nbeta   Ndocc  Nsocc
   -------------------------------------------------------
     Ag        18      18       5       5       5       0
     B1g       12      12       4       4       4       0
     B2g        4       4       1       1       1       0
     B3g        2       2       1       1       1       0
     Au         2       2       0       0       0       0
     B1u        4       4       1       1       1       0
     B2u       12      12       4       4       4       0
     B3u       18      18       5       5       5       0
   -------------------------------------------------------
    Total      72      72      21      21      21       0
   -------------------------------------------------------

  ==> Integral Setup <==

 MINTS: Wrapper to libmints.
   by Justin Turney

   Calculation information:
      Number of atoms:                  12
      Number of AO shells:              48
      Number of SO shells:              16
      Number of primitives:            108
      Number of atomic orbitals:        72
      Number of basis functions:        72

      Number of irreps:                  8
      Number of functions per irrep: [  18   12    4    2    2    4   12   18 ]

      Overlap, kinetic, potential, dipole, and quadrupole integrals
        stored in file 35.

      Computing two-electron integrals...done
      Computed 523454 non-zero two-electron integrals.
        Stored in file 33.

  ==> Iterations <==

                        Total Energy        Delta E     Density RMS

   @RHF iter   1:  -206.60073037959768   -3.29303e+01   0.00000e+00 
	Occupation by irrep:
	         Ag   B1g   B2g   B3g    Au   B1u   B2u   B3u 
	DOCC [     6,    3,    0,    0,    0,    0,    5,    7 ]

   @RHF iter   2:  -203.17376847725097    3.42696e+00   5.47158e+00 DIIS
	Occupation by irrep:
	         Ag   B1g   B2g   B3g    Au   B1u   B2u   B3u 
	DOCC [     6,    3,    1,    1,    0,    1,    4,    5 ]

   @RHF iter   3:  -230.13675455022235   -2.69630e+01   5.47394e+00 DIIS
   @RHF iter   4:  -230.63227290075497   -4.95518e-01   3.06565e-02 DIIS
   @RHF iter   5:  -230.64055959043048   -8.28669e-03   8.40241e-03 DIIS
   @RHF iter   6:  -230.64166351141205   -1.10392e-03   1.58161e-03 DIIS
   @RHF iter   7:  -230.64168457058736   -2.10592e-05   2.50006e-04 DIIS
   @RHF iter   8:  -230.64168496946985   -3.98882e-07   4.88238e-05 DIIS
   @RHF iter   9:  -230.64168497672108   -7.25123e-09   5.92236e-06 DIIS
   @RHF iter  10:  -230.64168497693743   -2.16346e-10   7.50613e-07 DIIS
   @RHF iter  11:  -230.64168497695630   -1.88720e-11   2.12421e-07 DIIS
   @RHF iter  12:  -230.64168497695653   -2.27374e-13   3.70781e-08 DIIS

  ==> Post-Iterations <==

	Orbital Energies (a.u.)
	-----------------------

	Doubly Occupied:                                                      

	   1Ag   -11.247979     1B3u  -11.247429     1B2u  -11.247429  
	   2Ag   -11.246234     1B1g  -11.246234     2B3u  -11.245649  
	   3Ag    -1.158695     2B2u   -1.021757     3B3u   -1.021754  
	   4Ag    -0.829053     2B1g   -0.829053     5Ag    -0.719345  
	   4B3u   -0.647918     3B2u   -0.621626     4B2u   -0.594334  
	   5B3u   -0.594330     1B1u   -0.503713     3B1g   -0.494786  
	   6Ag    -0.494782     1B3g   -0.339040     1B2g   -0.339039  

	Virtual:                                                              

	   1Au     0.126885     2B1u    0.126885     7Ag     0.277410  
	   4B1g    0.277410     8Ag     0.306378     5B2u    0.323394  
	   6B3u    0.323395     2B2g    0.325283     7B3u    0.330549  
	   8B3u    0.409342     6B2u    0.409343     7B2u    0.424440  
	   3B1u    0.477273     5B1g    0.495474     9Ag     0.495476  
	   2B3g    0.535739     3B2g    0.535739    10Ag     0.539841  
	   6B1g    0.539847     9B3u    0.570286    11Ag     0.585402  
	   4B1u    0.627367     2Au     0.627367     7B1g    0.647474  
	  12Ag     0.688525    10B3u    0.691449     8B2u    0.691449  
	   4B2g    0.712038    13Ag     0.872513     8B1g    0.872520  
	  11B3u    0.888218     9B2u    0.888219    12B3u    0.991632  
	   9B1g    1.091814    10B1g    1.173679    14Ag     1.173679  
	  13B3u    1.229599    10B2u    1.229601    14B3u    1.239258  
	  15Ag     1.415065    11B2u    1.486159    15B3u    1.486160  
	  11B1g    1.610611    16Ag     1.610612    16B3u    1.833077  
	  17Ag    23.673213    17B3u   23.936951    12B2u   23.936952  
	  18Ag    24.046926    12B1g   24.046928    18B3u   24.183055  

	Final Occupation by Irrep:
	         Ag   B1g   B2g   B3g    Au   B1u   B2u   B3u 
	DOCC [     6,    3,    1,    1,    0,    1,    4,    5 ]

  Energy converged.

  @RHF Final Energy:  -230.64168497695653

   => Energetics <=

    Nuclear Repulsion Energy =        203.6658044423492129
    One-Electron Energy =            -713.2346223443512372
    Two-Electron Energy =             278.9271329250453846
    DFT Functional Energy =             0.0000000000000000
    Empirical Dispersion Energy =       0.0000000000000000
    Total Energy =                   -230.6416849769566397

  ==> Properties <==

  Nuclear Dipole Moment: (a.u.)
     X:     0.0000      Y:     0.0000      Z:    -0.0000

  Electronic Dipole Moment: (a.u.)
     X:     0.0000      Y:     0.0000      Z:     0.0000

  Dipole Moment: (a.u.)
     X:     0.0000      Y:     0.0000      Z:    -0.0000     Total:     0.0000

  Dipole Moment: (Debye)
     X:     0.0000      Y:     0.0000      Z:    -0.0000     Total:     0.0000


  Saving occupied orbitals to File 180.

*** tstop() called on lawn-143-215-103-161.lawn.gatech.edu at Fri Apr 27 13:55:41 2012
Module time:
	user time   =       1.97 seconds =       0.03 minutes
	system time =       0.03 seconds =       0.00 minutes
	total time  =          2 seconds =       0.03 minutes
Total time:
	user time   =      12.04 seconds =       0.20 minutes
	system time =       0.09 seconds =       0.00 minutes
	total time  =         13 seconds =       0.22 minutes

*** tstart() called on lawn-143-215-103-161.lawn.gatech.edu
*** at Fri Apr 27 13:55:41 2012

 DERIV: Derivative code.
   by Justin Turney

  Cartesian Displacement SALCs
  By SALC:
  Number of SALCs: 6, nirreps: 1
  Project out translations: False
  Project out rotations: False
	irrep = 0, ncomponent = 2
		0: atom 0, direction x, coef 0.707107
		1: atom 5, direction x, coef -0.707107
	irrep = 0, ncomponent = 4
		0: atom 1, direction x, coef 0.500000
		1: atom 2, direction x, coef 0.500000
		2: atom 3, direction x, coef -0.500000
		3: atom 4, direction x, coef -0.500000
	irrep = 0, ncomponent = 4
		0: atom 1, direction y, coef 0.500000
		1: atom 2, direction y, coef -0.500000
		2: atom 3, direction y, coef 0.500000
		3: atom 4, direction y, coef -0.500000
	irrep = 0, ncomponent = 2
		0: atom 6, direction x, coef 0.707107
		1: atom 11, direction x, coef -0.707107
	irrep = 0, ncomponent = 4
		0: atom 7, direction x, coef 0.500000
		1: atom 8, direction x, coef 0.500000
		2: atom 9, direction x, coef -0.500000
		3: atom 10, direction x, coef -0.500000
	irrep = 0, ncomponent = 4
		0: atom 7, direction y, coef 0.500000
		1: atom 8, direction y, coef -0.500000
		2: atom 9, direction y, coef 0.500000
		3: atom 10, direction y, coef -0.500000

  By Atomic Center:
  Number of atomic centers: 12
   Atomic Center 0:
	x component, size = 1
		0: salc 0, irrep 0, coef 0.707107
	y component, size = 0
	z component, size = 0
   Atomic Center 1:
	x component, size = 1
		0: salc 1, irrep 0, coef 0.500000
	y component, size = 1
		0: salc 2, irrep 0, coef 0.500000
	z component, size = 0
   Atomic Center 2:
	x component, size = 1
		0: salc 1, irrep 0, coef 0.500000
	y component, size = 1
		0: salc 2, irrep 0, coef -0.500000
	z component, size = 0
   Atomic Center 3:
	x component, size = 1
		0: salc 1, irrep 0, coef -0.500000
	y component, size = 1
		0: salc 2, irrep 0, coef 0.500000
	z component, size = 0
   Atomic Center 4:
	x component, size = 1
		0: salc 1, irrep 0, coef -0.500000
	y component, size = 1
		0: salc 2, irrep 0, coef -0.500000
	z component, size = 0
   Atomic Center 5:
	x component, size = 1
		0: salc 0, irrep 0, coef -0.707107
	y component, size = 0
	z component, size = 0
   Atomic Center 6:
	x component, size = 1
		0: salc 3, irrep 0, coef 0.707107
	y component, size = 0
	z component, size = 0
   Atomic Center 7:
	x component, size = 1
		0: salc 4, irrep 0, coef 0.500000
	y component, size = 1
		0: salc 5, irrep 0, coef 0.500000
	z component, size = 0
   Atomic Center 8:
	x component, size = 1
		0: salc 4, irrep 0, coef 0.500000
	y component, size = 1
		0: salc 5, irrep 0, coef -0.500000
	z component, size = 0
   Atomic Center 9:
	x component, size = 1
		0: salc 4, irrep 0, coef -0.500000
	y component, size = 1
		0: salc 5, irrep 0, coef 0.500000
	z component, size = 0
   Atomic Center 10:
	x component, size = 1
		0: salc 4, irrep 0, coef -0.500000
	y component, size = 1
		0: salc 5, irrep 0, coef -0.500000
	z component, size = 0
   Atomic Center 11:
	x component, size = 1
		0: salc 3, irrep 0, coef -0.707107
	y component, size = 0
	z component, size = 0

    Molecular point group: d2h

    Geometry (in Bohr), charge = 0, multiplicity = 1:

       Center              X                  Y                   Z       
    ------------   -----------------  -----------------  -----------------
           C         -2.638808755769    -0.000000000000     0.000000000000
           C         -1.319409882633     2.285294172087     0.000000000000
           C         -1.319409882633    -2.285294172087     0.000000000000
           C          1.319409882633     2.285294172087     0.000000000000
           C          1.319409882633    -2.285294172087     0.000000000000
           C          2.638808755769     0.000000000000     0.000000000000
           H         -4.662918186025    -0.000000000000     0.000000000000
           H         -2.331455103476     4.038223807657     0.000000000000
           H         -2.331455103476    -4.038223807657    -0.000000000000
           H          2.331455103476     4.038223807657     0.000000000000
           H          2.331455103476    -4.038223807657    -0.000000000000
           H          4.662918186025     0.000000000000     0.000000000000


  -Nuclear Repulsion Energy 1st Derivatives:
     Atom            X                  Y                   Z
    ------   -----------------  -----------------  -----------------
       1        8.377873834061     0.000000000000     0.000000000000
       2        4.188986065811    -7.255473565368     0.000000000000
       3        4.188986065811     7.255473565368     0.000000000000
       4       -4.188986065811    -7.255473565368    -0.000000000000
       5       -4.188986065811     7.255473565368     0.000000000000
       6       -8.377873834061     0.000000000000     0.000000000000
       7        2.538424662921     0.000000000000     0.000000000000
       8        1.269212169021    -2.198348234308    -0.000000000000
       9        1.269212169021     2.198348234308     0.000000000000
      10       -1.269212169021    -2.198348234308    -0.000000000000
      11       -1.269212169021     2.198348234308     0.000000000000
      12       -2.538424662921     0.000000000000    -0.000000000000


  -One-electron contribution to gradient:
     Atom            X                  Y                   Z
    ------   -----------------  -----------------  -----------------
       1      -17.216320292998     0.000000000000     0.000000000000
       2       -8.608385785634    14.910002184095     0.000000000000
       3       -8.608385785634   -14.910002184095     0.000000000000
       4        8.608385785634    14.910002184095     0.000000000000
       5        8.608385785634   -14.910002184095     0.000000000000
       6       17.216320292998     0.000000000000     0.000000000000
       7       -6.466126112116     0.000000000000     0.000000000000
       8       -3.233036411384     5.599868378978     0.000000000000
       9       -3.233036411384    -5.599868378978     0.000000000000
      10        3.233036411384     5.599868378978     0.000000000000
      11        3.233036411384    -5.599868378978     0.000000000000
      12        6.466126112116     0.000000000000     0.000000000000


  -Lagrangian contribution to gradient:
     Atom            X                  Y                   Z
    ------   -----------------  -----------------  -----------------
       1        0.077942969705     0.000000000000     0.000000000000
       2        0.038977897912    -0.067506346137     0.000000000000
       3        0.038977897912     0.067506346137     0.000000000000
       4       -0.038977897912    -0.067506346137     0.000000000000
       5       -0.038977897912     0.067506346137     0.000000000000
       6       -0.077942969705     0.000000000000     0.000000000000
       7        0.179590520216     0.000000000000     0.000000000000
       8        0.089794514565    -0.155531876305     0.000000000000
       9        0.089794514565     0.155531876305     0.000000000000
      10       -0.089794514565    -0.155531876305     0.000000000000
      11       -0.089794514565     0.155531876305     0.000000000000
      12       -0.179590520216     0.000000000000     0.000000000000


  -Two-electron contribution to gradient:
     Atom            X                  Y                   Z
    ------   -----------------  -----------------  -----------------
       1        8.759139838483     0.000000000000     0.000000000000
       2        4.379736245088    -7.585834728479     0.000000000000
       3        4.379736245088     7.585834728479     0.000000000000
       4       -4.379736245088    -7.585834728479     0.000000000000
       5       -4.379736245088     7.585834728479     0.000000000000
       6       -8.759139838483     0.000000000000     0.000000000000
       7        3.749250682801     0.000000000000     0.000000000000
       8        1.874601513301    -3.246976182481     0.000000000000
       9        1.874601513301     3.246976182481     0.000000000000
      10       -1.874601513301    -3.246976182481     0.000000000000
      11       -1.874601513301     3.246976182481     0.000000000000
      12       -3.749250682801     0.000000000000     0.000000000000


  -Total gradient:
     Atom            X                  Y                   Z
    ------   -----------------  -----------------  -----------------
       1       -0.001363650748     0.000000000000     0.000000000000
       2       -0.000685576823     0.001187544110     0.000000000000
       3       -0.000685576823    -0.001187544110     0.000000000000
       4        0.000685576823     0.001187544110    -0.000000000000
       5        0.000685576823    -0.001187544110     0.000000000000
       6        0.001363650748     0.000000000000     0.000000000000
       7        0.001139753823     0.000000000000     0.000000000000
       8        0.000571785503    -0.000987914116    -0.000000000000
       9        0.000571785503     0.000987914116     0.000000000000
      10       -0.000571785503    -0.000987914116    -0.000000000000
      11       -0.000571785503     0.000987914116     0.000000000000
      12       -0.001139753823     0.000000000000    -0.000000000000


*** tstop() called on lawn-143-215-103-161.lawn.gatech.edu at Fri Apr 27 13:55:49 2012
Module time:
	user time   =       7.96 seconds =       0.13 minutes
	system time =       0.03 seconds =       0.00 minutes
	total time  =          8 seconds =       0.13 minutes
Total time:
	user time   =      20.00 seconds =       0.33 minutes
	system time =       0.12 seconds =       0.00 minutes
	total time  =         21 seconds =       0.35 minutes

			----------------------------------
			 OPTKING: for geometry optimizations  
			  - R.A. King,  Bethel University   
			------------------------------------

	Previous internal coordinate definitions found.
	---Fragment 1 Geometry and Gradient---
	 C          -2.6388087558       -0.0000000000        0.0000000000
	 C          -1.3194098826        2.2852941721        0.0000000000
	 C          -1.3194098826       -2.2852941721        0.0000000000
	 C           1.3194098826        2.2852941721        0.0000000000
	 C           1.3194098826       -2.2852941721        0.0000000000
	 C           2.6388087558        0.0000000000        0.0000000000
	 H          -4.6629181860       -0.0000000000        0.0000000000
	 H          -2.3314551035        4.0382238077        0.0000000000
	 H          -2.3314551035       -4.0382238077       -0.0000000000
	 H           2.3314551035        4.0382238077        0.0000000000
	 H           2.3314551035       -4.0382238077       -0.0000000000
	 H           4.6629181860        0.0000000000        0.0000000000
	            -0.0013636507        0.0000000000        0.0000000000
	            -0.0006855768        0.0011875441        0.0000000000
	            -0.0006855768       -0.0011875441        0.0000000000
	             0.0006855768        0.0011875441       -0.0000000000
	             0.0006855768       -0.0011875441        0.0000000000
	             0.0013636507        0.0000000000        0.0000000000
	             0.0011397538        0.0000000000        0.0000000000
	             0.0005717855       -0.0009879141       -0.0000000000
	             0.0005717855        0.0009879141        0.0000000000
	            -0.0005717855       -0.0009879141       -0.0000000000
	            -0.0005717855        0.0009879141        0.0000000000
	            -0.0011397538        0.0000000000       -0.0000000000

	---Fragment 1 Intrafragment Coordinates---
	 - Coordinate -           - BOHR/RAD -       - ANG/DEG -
	 R(1,2)           =         2.638822	       1.396405
	 R(1,3)           =         2.638822	       1.396405
	 R(1,7)           =         2.024109	       1.071113
	 R(2,4)           =         2.638820	       1.396403
	 R(2,8)           =         2.024104	       1.071110
	 R(3,5)           =         2.638820	       1.396403
	 R(3,9)           =         2.024104	       1.071110
	 R(4,6)           =         2.638822	       1.396405
	 R(4,10)          =         2.024104	       1.071110
	 R(5,6)           =         2.638822	       1.396405
	 R(5,11)          =         2.024104	       1.071110
	 R(6,12)          =         2.024109	       1.071113
	 B(1,2,4)         =         2.094390	     119.999693
	 B(1,2,8)         =         2.094404	     120.000532
	 B(1,3,5)         =         2.094390	     119.999693
	 B(1,3,9)         =         2.094404	     120.000532
	 B(2,1,3)         =         2.094406	     120.000614
	 B(2,1,7)         =         2.094390	     119.999693
	 B(2,4,6)         =         2.094390	     119.999693
	 B(2,4,10)        =         2.094391	     119.999775
	 B(3,1,7)         =         2.094390	     119.999693
	 B(3,5,6)         =         2.094390	     119.999693
	 B(3,5,11)        =         2.094391	     119.999775
	 B(4,2,8)         =         2.094391	     119.999775
	 B(4,6,5)         =         2.094406	     120.000614
	 B(4,6,12)        =         2.094390	     119.999693
	 B(5,3,9)         =         2.094391	     119.999775
	 B(5,6,12)        =         2.094390	     119.999693
	 B(6,4,10)        =         2.094404	     120.000532
	 B(6,5,11)        =         2.094404	     120.000532
	 D(1,2,4,6)       =         0.000000	       0.000000
	 D(1,2,4,10)      =         3.141593	     180.000000
	 D(1,3,5,6)       =         0.000000	       0.000000
	 D(1,3,5,11)      =        -3.141593	    -180.000000
	 D(2,1,3,5)       =         0.000000	       0.000000
	 D(2,1,3,9)       =        -3.141593	    -180.000000
	 D(2,4,6,5)       =         0.000000	       0.000000
	 D(2,4,6,12)      =        -3.141593	    -180.000000
	 D(3,1,2,4)       =         0.000000	       0.000000
	 D(3,1,2,8)       =         3.141593	     180.000000
	 D(3,5,6,4)       =         0.000000	       0.000000
	 D(3,5,6,12)      =         3.141593	     180.000000
	 D(4,2,1,7)       =         3.141593	     180.000000
	 D(4,6,5,11)      =         3.141593	     180.000000
	 D(5,3,1,7)       =         3.141593	     180.000000
	 D(5,6,4,10)      =         3.141593	     180.000000
	 D(6,4,2,8)       =         3.141593	     180.000000
	 D(6,5,3,9)       =         3.141593	     180.000000
	 D(7,1,2,8)       =         0.000000	       0.000000
	 D(7,1,3,9)       =         0.000000	       0.000000
	 D(8,2,4,10)      =         0.000000	       0.000000
	 D(9,3,5,11)      =         0.000000	       0.000000
	 D(10,4,6,12)     =         0.000000	       0.000000
	 D(11,5,6,12)     =        -0.000000	      -0.000000

	Current energy   :      -230.6416849770

	Energy change for the previous step:
		Projected    :        -0.0008648487
		Actual       :        -0.0007795463
	Energy ratio indicates good step: Trust radius increased to 8.000e-01.


	Performing BFGS update with previous 1 gradient(s).
	Going to follow RFO solution 1.
	Projected energy change by RFO approximation:        -0.0000101831

	Back-transformation to cartesian coordinates...
	Successfully converged to displaced geometry.

	---Internal Coordinate Step in ANG or DEG, aJ/ANG or AJ/DEG ---
	 ----------------------------------------------------------------------
	 Coordinate             Previous        Force       Change         New 
	 ----------             --------       ------       ------       ------
	 R(1,2)          =      1.396405    -0.001886    -0.000233     1.396172
	 R(1,3)          =      1.396405    -0.001886    -0.000233     1.396172
	 R(1,7)          =      1.071113     0.009390     0.001527     1.072639
	 R(2,4)          =      1.396403    -0.001860    -0.000230     1.396173
	 R(2,8)          =      1.071110     0.009404     0.001529     1.072639
	 R(3,5)          =      1.396403    -0.001860    -0.000230     1.396173
	 R(3,9)          =      1.071110     0.009404     0.001529     1.072639
	 R(4,6)          =      1.396405    -0.001886    -0.000233     1.396172
	 R(4,10)         =      1.071110     0.009404     0.001529     1.072639
	 R(5,6)          =      1.396405    -0.001886    -0.000233     1.396172
	 R(5,11)         =      1.071110     0.009404     0.001529     1.072639
	 R(6,12)         =      1.071113     0.009390     0.001527     1.072639
	 B(1,2,4)        =    119.999693     0.000000     0.000329   120.000022
	 B(1,2,8)        =    120.000532    -0.000000    -0.000564   119.999968
	 B(1,3,5)        =    119.999693     0.000000     0.000329   120.000022
	 B(1,3,9)        =    120.000532    -0.000000    -0.000564   119.999968
	 B(2,1,3)        =    120.000614    -0.000000    -0.000658   119.999956
	 B(2,1,7)        =    119.999693     0.000000     0.000329   120.000022
	 B(2,4,6)        =    119.999693     0.000000     0.000329   120.000022
	 B(2,4,10)       =    119.999775     0.000000     0.000235   120.000010
	 B(3,1,7)        =    119.999693     0.000000     0.000329   120.000022
	 B(3,5,6)        =    119.999693     0.000000     0.000329   120.000022
	 B(3,5,11)       =    119.999775     0.000000     0.000235   120.000010
	 B(4,2,8)        =    119.999775     0.000000     0.000235   120.000010
	 B(4,6,5)        =    120.000614    -0.000000    -0.000658   119.999956
	 B(4,6,12)       =    119.999693     0.000000     0.000329   120.000022
	 B(5,3,9)        =    119.999775     0.000000     0.000235   120.000010
	 B(5,6,12)       =    119.999693     0.000000     0.000329   120.000022
	 B(6,4,10)       =    120.000532    -0.000000    -0.000564   119.999968
	 B(6,5,11)       =    120.000532    -0.000000    -0.000564   119.999968
	 D(1,2,4,6)      =      0.000000    -0.000000    -0.000000    -0.000000
	 D(1,2,4,10)     =    180.000000     0.000000     0.000000   180.000000
	 D(1,3,5,6)      =      0.000000     0.000000    -0.000000    -0.000000
	 D(1,3,5,11)     =   -180.000000    -0.000000     0.000000  -180.000000
	 D(2,1,3,5)      =      0.000000    -0.000000     0.000000     0.000000
	 D(2,1,3,9)      =   -180.000000    -0.000000     0.000000  -180.000000
	 D(2,4,6,5)      =      0.000000     0.000000     0.000000     0.000000
	 D(2,4,6,12)     =   -180.000000    -0.000000     0.000000  -180.000000
	 D(3,1,2,4)      =      0.000000     0.000000     0.000000     0.000000
	 D(3,1,2,8)      =    180.000000    -0.000000     0.000000   180.000000
	 D(3,5,6,4)      =      0.000000    -0.000000    -0.000000    -0.000000
	 D(3,5,6,12)     =    180.000000     0.000000     0.000000   180.000000
	 D(4,2,1,7)      =    180.000000     0.000000     0.000000   180.000000
	 D(4,6,5,11)     =    180.000000    -0.000000     0.000000   180.000000
	 D(5,3,1,7)      =    180.000000    -0.000000     0.000000   180.000000
	 D(5,6,4,10)     =    180.000000     0.000000     0.000000   180.000000
	 D(6,4,2,8)      =    180.000000    -0.000000     0.000000   180.000000
	 D(6,5,3,9)      =    180.000000     0.000000     0.000000   180.000000
	 D(7,1,2,8)      =      0.000000     0.000000    -0.000000    -0.000000
	 D(7,1,3,9)      =      0.000000    -0.000000    -0.000000    -0.000000
	 D(8,2,4,10)     =      0.000000     0.000000    -0.000000    -0.000000
	 D(9,3,5,11)     =      0.000000    -0.000000    -0.000000    -0.000000
	 D(10,4,6,12)    =      0.000000    -0.000000     0.000000     0.000000
	 D(11,5,6,12)    =     -0.000000     0.000000     0.000000     0.000000
	 ----------------------------------------------------------------------

  ==> Convergence Check <==

  Measures of convergence in internal coordinates in au.
  Criteria marked as inactive (o), active & met (*), and active & unmet ( ).
  ---------------------------------------------------------------------------------------------
   Step     Total Energy     Delta E     MAX Force     RMS Force      MAX Disp      RMS Disp   
  ---------------------------------------------------------------------------------------------
    Convergence Criteria    1.00e-08 *    3.00e-04 *             o    1.20e-03 *             o
  ---------------------------------------------------------------------------------------------
      2    -230.64168498   -7.80e-04      1.14e-03      3.88e-04 o    2.89e-03      9.74e-04 o  ~
  ---------------------------------------------------------------------------------------------

	Writing optimization data to binary file.
	Structure for next step:
	Cartesian Geometry (au)
	    C    -2.6383843256  -0.0000000000   0.0000000000
	    C    -1.3191925731   2.2849051196   0.0000000000
	    C    -1.3191925731  -2.2849051196   0.0000000000
	    C     1.3191925731   2.2849051196   0.0000000000
	    C     1.3191925731  -2.2849051196  -0.0000000000
	    C     2.6383843256   0.0000000000   0.0000000000
	    H    -4.6653785255  -0.0000000000  -0.0000000000
	    H    -2.3326894874   4.0403325521  -0.0000000000
	    H    -2.3326894874  -4.0403325521   0.0000000000
	    H     2.3326894874   4.0403325521   0.0000000000
	    H     2.3326894874  -4.0403325521   0.0000000000
	    H     4.6653785255   0.0000000000  -0.0000000000
			--------------------------
			 OPTKING Finished Execution 
			--------------------------

*** tstart() called on lawn-143-215-103-161.lawn.gatech.edu
*** at Fri Apr 27 13:55:49 2012

	There are an even number of electrons - assuming singlet.
	Specify the multiplicity with the MULTP option in the
	input if this is incorrect


         ---------------------------------------------------------
                                   SCF
            by Justin Turney, Rob Parrish, and Andy Simmonett
                              RHF Reference
                        1 Threads,    250 MiB Core
         ---------------------------------------------------------

  ==> Geometry <==

    Molecular point group: d2h

    Geometry (in Angstrom), charge = 0, multiplicity = 1:

       Center              X                  Y                   Z       
    ------------   -----------------  -----------------  -----------------
           C         -1.396172852586    -0.000000000000     0.000000000000
           C         -0.698086643405     1.209119713057     0.000000000000
           C         -0.698086643405    -1.209119713057    -0.000000000000
           C          0.698086643405     1.209119713057     0.000000000000
           C          0.698086643405    -1.209119713057     0.000000000000
           C          1.396172852586     0.000000000000     0.000000000000
           H         -2.468811985137    -0.000000000000     0.000000000000
           H         -1.234406111450     2.138051901713     0.000000000000
           H         -1.234406111450    -2.138051901713     0.000000000000
           H          1.234406111450     2.138051901713     0.000000000000
           H          1.234406111450    -2.138051901713    -0.000000000000
           H          2.468811985137     0.000000000000     0.000000000000

  Running in d2h symmetry.

  Nuclear repulsion =  203.650592434882725

  Charge       = 0
  Multiplicity = 1
  Electrons    = 42
  Nalpha       = 21
  Nbeta        = 21

  ==> Algorithm <==

  SCF Algorithm Type is PK.
  DIIS enabled.
  MOM disabled.
  Fractional occupation disabled.
  Guess Type is CORE.
  Energy threshold   = 1.00e-08
  Density threshold  = 1.00e-08
  Integral threshold = 0.00e+00

  ==> Primary Basis <==

  Basis Set: DZ
    Number of shells: 48
    Number of basis function: 72
    Number of Cartesian functions: 72
    Spherical Harmonics?: true
    Max angular momentum: 1

  ==> Pre-Iterations <==

  Minimum eigenvalue in the overlap matrix is 1.3222915549E-03.
  Using Symmetric Orthogonalization.
  SCF Guess: Core (One-Electron) Hamiltonian.

  Initial RHF energy:  -173.69416924640015

   -------------------------------------------------------
    Irrep   Nso     Nmo     Nalpha   Nbeta   Ndocc  Nsocc
   -------------------------------------------------------
     Ag        18      18       5       5       5       0
     B1g       12      12       4       4       4       0
     B2g        4       4       1       1       1       0
     B3g        2       2       1       1       1       0
     Au         2       2       0       0       0       0
     B1u        4       4       1       1       1       0
     B2u       12      12       4       4       4       0
     B3u       18      18       5       5       5       0
   -------------------------------------------------------
    Total      72      72      21      21      21       0
   -------------------------------------------------------

  ==> Integral Setup <==

 MINTS: Wrapper to libmints.
   by Justin Turney

   Calculation information:
      Number of atoms:                  12
      Number of AO shells:              48
      Number of SO shells:              16
      Number of primitives:            108
      Number of atomic orbitals:        72
      Number of basis functions:        72

      Number of irreps:                  8
      Number of functions per irrep: [  18   12    4    2    2    4   12   18 ]

      Overlap, kinetic, potential, dipole, and quadrupole integrals
        stored in file 35.

      Computing two-electron integrals...done
      Computed 523454 non-zero two-electron integrals.
        Stored in file 33.

  ==> Iterations <==

                        Total Energy        Delta E     Density RMS

   @RHF iter   1:  -206.59747676893139   -3.29033e+01   0.00000e+00 
	Occupation by irrep:
	         Ag   B1g   B2g   B3g    Au   B1u   B2u   B3u 
	DOCC [     6,    3,    0,    0,    0,    0,    5,    7 ]

   @RHF iter   2:  -203.14002821674146    3.45745e+00   5.49151e+00 DIIS
	Occupation by irrep:
	         Ag   B1g   B2g   B3g    Au   B1u   B2u   B3u 
	DOCC [     6,    3,    1,    1,    0,    1,    4,    5 ]

   @RHF iter   3:  -230.13456184956758   -2.69945e+01   5.49386e+00 DIIS
   @RHF iter   4:  -230.63225353156506   -4.97692e-01   3.07490e-02 DIIS
   @RHF iter   5:  -230.64056249328448   -8.30896e-03   8.43463e-03 DIIS
   @RHF iter   6:  -230.64167323077393   -1.11074e-03   1.58605e-03 DIIS
   @RHF iter   7:  -230.64169434726264   -2.11165e-05   2.50450e-04 DIIS
   @RHF iter   8:  -230.64169474607505   -3.98812e-07   4.89390e-05 DIIS
   @RHF iter   9:  -230.64169475331815   -7.24310e-09   5.99041e-06 DIIS
   @RHF iter  10:  -230.64169475348453   -1.66381e-10   7.41421e-07 DIIS
   @RHF iter  11:  -230.64169475348635   -1.81899e-12   9.52418e-08 DIIS

  ==> Post-Iterations <==

	Orbital Energies (a.u.)
	-----------------------

	Doubly Occupied:                                                      

	   1Ag   -11.248146     1B3u  -11.247596     1B2u  -11.247596  
	   1B1g  -11.246399     2Ag   -11.246399     2B3u  -11.245814  
	   3Ag    -1.158880     3B3u   -1.021734     2B2u   -1.021733  
	   2B1g   -0.828816     4Ag    -0.828816     5Ag    -0.719005  
	   4B3u   -0.647217     3B2u   -0.621780     5B3u   -0.594070  
	   4B2u   -0.594070     1B1u   -0.503893     3B1g   -0.494567  
	   6Ag    -0.494567     1B2g   -0.339154     1B3g   -0.339153  

	Virtual:                                                              

	   1Au     0.126899     2B1u    0.126899     4B1g    0.277519  
	   7Ag     0.277520     8Ag     0.305483     6B3u    0.323442  
	   5B2u    0.323442     2B2g    0.325352     7B3u    0.330492  
	   8B3u    0.408551     6B2u    0.408551     7B2u    0.424342  
	   3B1u    0.477174     5B1g    0.495068     9Ag     0.495068  
	   3B2g    0.535643     2B3g    0.535643     6B1g    0.540170  
	  10Ag     0.540171     9B3u    0.569938    11Ag     0.585670  
	   2Au     0.627325     4B1u    0.627326     7B1g    0.647483  
	  12Ag     0.688737    10B3u    0.691547     8B2u    0.691548  
	   4B2g    0.712036     8B1g    0.872601    13Ag     0.872603  
	  11B3u    0.888776     9B2u    0.888777    12B3u    0.991825  
	   9B1g    1.092120    10B1g    1.173567    14Ag     1.173568  
	  13B3u    1.229920    10B2u    1.229920    14B3u    1.238769  
	  15Ag     1.413235    15B3u    1.484152    11B2u    1.484153  
	  16Ag     1.609184    11B1g    1.609185    16B3u    1.832626  
	  17Ag    23.672750    17B3u   23.936556    12B2u   23.936557  
	  12B1g   24.046819    18Ag    24.046820    18B3u   24.183304  

	Final Occupation by Irrep:
	         Ag   B1g   B2g   B3g    Au   B1u   B2u   B3u 
	DOCC [     6,    3,    1,    1,    0,    1,    4,    5 ]

  Energy converged.

  @RHF Final Energy:  -230.64169475348635

   => Energetics <=

    Nuclear Repulsion Energy =        203.6505924348827250
    One-Electron Energy =            -713.2057671123586715
    Two-Electron Energy =             278.9134799239895983
    DFT Functional Energy =             0.0000000000000000
    Empirical Dispersion Energy =       0.0000000000000000
    Total Energy =                   -230.6416947534863766

  ==> Properties <==

  Nuclear Dipole Moment: (a.u.)
     X:    -0.0000      Y:    -0.0000      Z:    -0.0000

  Electronic Dipole Moment: (a.u.)
     X:     0.0000      Y:     0.0000      Z:     0.0000

  Dipole Moment: (a.u.)
     X:    -0.0000      Y:    -0.0000      Z:    -0.0000     Total:     0.0000

  Dipole Moment: (Debye)
     X:    -0.0000      Y:    -0.0000      Z:    -0.0000     Total:     0.0000


  Saving occupied orbitals to File 180.

*** tstop() called on lawn-143-215-103-161.lawn.gatech.edu at Fri Apr 27 13:55:51 2012
Module time:
	user time   =       2.01 seconds =       0.03 minutes
	system time =       0.04 seconds =       0.00 minutes
	total time  =          2 seconds =       0.03 minutes
Total time:
	user time   =      22.02 seconds =       0.37 minutes
	system time =       0.16 seconds =       0.00 minutes
	total time  =         23 seconds =       0.38 minutes

*** tstart() called on lawn-143-215-103-161.lawn.gatech.edu
*** at Fri Apr 27 13:55:51 2012

 DERIV: Derivative code.
   by Justin Turney

  Cartesian Displacement SALCs
  By SALC:
  Number of SALCs: 6, nirreps: 1
  Project out translations: False
  Project out rotations: False
	irrep = 0, ncomponent = 2
		0: atom 0, direction x, coef 0.707107
		1: atom 5, direction x, coef -0.707107
	irrep = 0, ncomponent = 4
		0: atom 1, direction x, coef 0.500000
		1: atom 2, direction x, coef 0.500000
		2: atom 3, direction x, coef -0.500000
		3: atom 4, direction x, coef -0.500000
	irrep = 0, ncomponent = 4
		0: atom 1, direction y, coef 0.500000
		1: atom 2, direction y, coef -0.500000
		2: atom 3, direction y, coef 0.500000
		3: atom 4, direction y, coef -0.500000
	irrep = 0, ncomponent = 2
		0: atom 6, direction x, coef 0.707107
		1: atom 11, direction x, coef -0.707107
	irrep = 0, ncomponent = 4
		0: atom 7, direction x, coef 0.500000
		1: atom 8, direction x, coef 0.500000
		2: atom 9, direction x, coef -0.500000
		3: atom 10, direction x, coef -0.500000
	irrep = 0, ncomponent = 4
		0: atom 7, direction y, coef 0.500000
		1: atom 8, direction y, coef -0.500000
		2: atom 9, direction y, coef 0.500000
		3: atom 10, direction y, coef -0.500000

  By Atomic Center:
  Number of atomic centers: 12
   Atomic Center 0:
	x component, size = 1
		0: salc 0, irrep 0, coef 0.707107
	y component, size = 0
	z component, size = 0
   Atomic Center 1:
	x component, size = 1
		0: salc 1, irrep 0, coef 0.500000
	y component, size = 1
		0: salc 2, irrep 0, coef 0.500000
	z component, size = 0
   Atomic Center 2:
	x component, size = 1
		0: salc 1, irrep 0, coef 0.500000
	y component, size = 1
		0: salc 2, irrep 0, coef -0.500000
	z component, size = 0
   Atomic Center 3:
	x component, size = 1
		0: salc 1, irrep 0, coef -0.500000
	y component, size = 1
		0: salc 2, irrep 0, coef 0.500000
	z component, size = 0
   Atomic Center 4:
	x component, size = 1
		0: salc 1, irrep 0, coef -0.500000
	y component, size = 1
		0: salc 2, irrep 0, coef -0.500000
	z component, size = 0
   Atomic Center 5:
	x component, size = 1
		0: salc 0, irrep 0, coef -0.707107
	y component, size = 0
	z component, size = 0
   Atomic Center 6:
	x component, size = 1
		0: salc 3, irrep 0, coef 0.707107
	y component, size = 0
	z component, size = 0
   Atomic Center 7:
	x component, size = 1
		0: salc 4, irrep 0, coef 0.500000
	y component, size = 1
		0: salc 5, irrep 0, coef 0.500000
	z component, size = 0
   Atomic Center 8:
	x component, size = 1
		0: salc 4, irrep 0, coef 0.500000
	y component, size = 1
		0: salc 5, irrep 0, coef -0.500000
	z component, size = 0
   Atomic Center 9:
	x component, size = 1
		0: salc 4, irrep 0, coef -0.500000
	y component, size = 1
		0: salc 5, irrep 0, coef 0.500000
	z component, size = 0
   Atomic Center 10:
	x component, size = 1
		0: salc 4, irrep 0, coef -0.500000
	y component, size = 1
		0: salc 5, irrep 0, coef -0.500000
	z component, size = 0
   Atomic Center 11:
	x component, size = 1
		0: salc 3, irrep 0, coef -0.707107
	y component, size = 0
	z component, size = 0

    Molecular point group: d2h

    Geometry (in Bohr), charge = 0, multiplicity = 1:

       Center              X                  Y                   Z       
    ------------   -----------------  -----------------  -----------------
           C         -2.638384325558    -0.000000000000     0.000000000000
           C         -1.319192573060     2.284905119551     0.000000000000
           C         -1.319192573060    -2.284905119551    -0.000000000000
           C          1.319192573060     2.284905119551     0.000000000000
           C          1.319192573060    -2.284905119551     0.000000000000
           C          2.638384325558     0.000000000000     0.000000000000
           H         -4.665378525495    -0.000000000000     0.000000000000
           H         -2.332689487401     4.040332552133     0.000000000000
           H         -2.332689487401    -4.040332552133     0.000000000000
           H          2.332689487401     4.040332552133     0.000000000000
           H          2.332689487401    -4.040332552133    -0.000000000000
           H          4.665378525495     0.000000000000     0.000000000000


  -Nuclear Repulsion Energy 1st Derivatives:
     Atom            X                  Y                   Z
    ------   -----------------  -----------------  -----------------
       1        8.384604819257    -0.000000000000     0.000000000000
       2        4.192286115871    -7.261278986777     0.000000000000
       3        4.192286115871     7.261278986777     0.000000000000
       4       -4.192286115871    -7.261278986777     0.000000000000
       5       -4.192286115871     7.261278986777     0.000000000000
       6       -8.384604819257     0.000000000000     0.000000000000
       7        2.533553317174     0.000000000000     0.000000000000
       8        1.266777365295    -2.194122866553    -0.000000000000
       9        1.266777365295     2.194122866553     0.000000000000
      10       -1.266777365295    -2.194122866553     0.000000000000
      11       -1.266777365295     2.194122866553     0.000000000000
      12       -2.533553317174     0.000000000000     0.000000000000


  -One-electron contribution to gradient:
     Atom            X                  Y                   Z
    ------   -----------------  -----------------  -----------------
       1      -17.221383542266     0.000000000000     0.000000000000
       2       -8.610663146944    14.914135352037     0.000000000000
       3       -8.610663146944   -14.914135352037     0.000000000000
       4        8.610663146944    14.914135352037     0.000000000000
       5        8.610663146944   -14.914135352037     0.000000000000
       6       17.221383542266     0.000000000000     0.000000000000
       7       -6.461366500029     0.000000000000     0.000000000000
       8       -3.230686922566     5.595707342166     0.000000000000
       9       -3.230686922566    -5.595707342166     0.000000000000
      10        3.230686922566     5.595707342166     0.000000000000
      11        3.230686922566    -5.595707342166     0.000000000000
      12        6.461366500029     0.000000000000     0.000000000000


  -Lagrangian contribution to gradient:
     Atom            X                  Y                   Z
    ------   -----------------  -----------------  -----------------
       1        0.078139740934     0.000000000000     0.000000000000
       2        0.039068931751    -0.067670324844     0.000000000000
       3        0.039068931751     0.067670324844     0.000000000000
       4       -0.039068931751    -0.067670324844     0.000000000000
       5       -0.039068931751     0.067670324844     0.000000000000
       6       -0.078139740934     0.000000000000     0.000000000000
       7        0.179380055557     0.000000000000     0.000000000000
       8        0.089690245455    -0.155347717059     0.000000000000
       9        0.089690245455     0.155347717059     0.000000000000
      10       -0.089690245455    -0.155347717059     0.000000000000
      11       -0.089690245455     0.155347717059     0.000000000000
      12       -0.179380055557     0.000000000000     0.000000000000


  -Two-electron contribution to gradient:
     Atom            X                  Y                   Z
    ------   -----------------  -----------------  -----------------
       1        8.758696567096     0.000000000000     0.000000000000
       2        4.379335399909    -7.585236101899     0.000000000000
       3        4.379335399909     7.585236101899     0.000000000000
       4       -4.379335399909    -7.585236101899     0.000000000000
       5       -4.379335399909     7.585236101899     0.000000000000
       6       -8.758696567096     0.000000000000     0.000000000000
       7        3.748389797258     0.000000000000     0.000000000000
       8        1.874197740309    -3.246199664649     0.000000000000
       9        1.874197740309     3.246199664649     0.000000000000
      10       -1.874197740309    -3.246199664649     0.000000000000
      11       -1.874197740309     3.246199664649     0.000000000000
      12       -3.748389797258     0.000000000000     0.000000000000


  -Total gradient:
     Atom            X                  Y                   Z
    ------   -----------------  -----------------  -----------------
       1        0.000057585020    -0.000000000000     0.000000000000
       2        0.000027300587    -0.000050061483     0.000000000000
       3        0.000027300587     0.000050061483     0.000000000000
       4       -0.000027300587    -0.000050061483     0.000000000000
       5       -0.000027300587     0.000050061483     0.000000000000
       6       -0.000057585020     0.000000000000     0.000000000000
       7       -0.000043330040     0.000000000000     0.000000000000
       8       -0.000021571506     0.000037093904    -0.000000000000
       9       -0.000021571506    -0.000037093904     0.000000000000
      10        0.000021571506     0.000037093904     0.000000000000
      11        0.000021571506    -0.000037093904     0.000000000000
      12        0.000043330040     0.000000000000     0.000000000000


*** tstop() called on lawn-143-215-103-161.lawn.gatech.edu at Fri Apr 27 13:56:00 2012
Module time:
	user time   =       8.05 seconds =       0.13 minutes
	system time =       0.01 seconds =       0.00 minutes
[...]
	    H     4.6652961147   0.0000000000   0.0000000000
	Saving final (previous) structure.
			--------------------------
			 OPTKING Finished Execution 
			--------------------------

*** tstart() called on lawn-143-215-103-161.lawn.gatech.edu
*** at Fri Apr 27 13:56:21 2012


         ---------------------------------------------------------
                                   SCF
            by Justin Turney, Rob Parrish, and Andy Simmonett
                             ROHF Reference
                        1 Threads,    250 MiB Core
         ---------------------------------------------------------

  ==> Geometry <==

    Molecular point group: d2h

    Geometry (in Angstrom), charge = 0, multiplicity = 3:

       Center              X                  Y                   Z       
    ------------   -----------------  -----------------  -----------------
           C         -1.396185438916    -0.000000000000     0.000000000000
           C         -0.698092700929     1.209131812396    -0.000000000000
           C         -0.698092700929    -1.209131812396     0.000000000000
           C          0.698092700929     1.209131812396     0.000000000000
           C          0.698092700929    -1.209131812396    -0.000000000000
           C          1.396185438916     0.000000000000     0.000000000000
           H         -2.468768375208    -0.000000000000     0.000000000000
           H         -1.234384195550     2.138015823479    -0.000000000000
           H         -1.234384195550    -2.138015823479     0.000000000000
           H          1.234384195550     2.138015823479    -0.000000000000
           H          1.234384195550    -2.138015823479     0.000000000000
           H          2.468768375208     0.000000000000     0.000000000000

  Running in d2h symmetry.

  Nuclear repulsion =  203.650563393827156

  Charge       = 0
  Multiplicity = 3
  Electrons    = 42
  Nalpha       = 22
  Nbeta        = 20

  ==> Algorithm <==

  SCF Algorithm Type is PK.
  DIIS enabled.
  MOM disabled.
  Fractional occupation disabled.
  Guess Type is CORE.
  Energy threshold   = 1.00e-08
  Density threshold  = 1.00e-08
  Integral threshold = 0.00e+00

  ==> Primary Basis <==

  Basis Set: DZ
    Number of shells: 48
    Number of basis function: 72
    Number of Cartesian functions: 72
    Spherical Harmonics?: true
    Max angular momentum: 1

  ==> Pre-Iterations <==

  Minimum eigenvalue in the overlap matrix is 1.3223948348E-03.
  Using Symmetric Orthogonalization.
  SCF Guess: Core (One-Electron) Hamiltonian.

  Initial ROHF energy:  -218.38426450750001

   -------------------------------------------------------
    Irrep   Nso     Nmo     Nalpha   Nbeta   Ndocc  Nsocc
   -------------------------------------------------------
     Ag        18      18       5       5       5       0
     B1g       12      12       4       4       4       0
     B2g        4       4       1       0       0       1
     B3g        2       2       1       1       1       0
     Au         2       2       1       0       0       1
     B1u        4       4       1       1       1       0
     B2u       12      12       4       4       4       0
     B3u       18      18       5       5       5       0
   -------------------------------------------------------
    Total      72      72      22      20      20       2
   -------------------------------------------------------

  ==> Integral Setup <==

 MINTS: Wrapper to libmints.
   by Justin Turney

   Calculation information:
      Number of atoms:                  12
      Number of AO shells:              48
      Number of SO shells:              16
      Number of primitives:            108
      Number of atomic orbitals:        72
      Number of basis functions:        72

      Number of irreps:                  8
      Number of functions per irrep: [  18   12    4    2    2    4   12   18 ]

      Overlap, kinetic, potential, dipole, and quadrupole integrals
        stored in file 35.

      Computing two-electron integrals...done
      Computed 523454 non-zero two-electron integrals.
        Stored in file 33.

  ==> Iterations <==

                        Total Energy        Delta E     Density RMS

   @ROHF iter   1:  -206.40977196649897    1.19745e+01   0.00000e+00 
	Occupation by irrep:
	         Ag   B1g   B2g   B3g    Au   B1u   B2u   B3u 
	DOCC [     6,    3,    0,    0,    0,    0,    4,    7 ]
	SOCC [     1,    1,    0,    0,    0,    0,    0,    0 ]

   @ROHF iter   2:  -202.22251572981168    4.18726e+00   1.06834e+01 DIIS
	Occupation by irrep:
	         Ag   B1g   B2g   B3g    Au   B1u   B2u   B3u 
	DOCC [     6,    3,    0,    1,    0,    1,    4,    5 ]
	SOCC [     0,    0,    1,    0,    1,    0,    0,    0 ]

   @ROHF iter   3:  -230.11547443599670   -2.78930e+01   1.07160e+01 DIIS
   @ROHF iter   4:  -230.41201113425507   -2.96537e-01   5.24471e-02 DIIS
   @ROHF iter   5:  -230.44550656111085   -3.34954e-02   1.71910e-02 DIIS
   @ROHF iter   6:  -230.44728522853001   -1.77867e-03   4.68215e-03 DIIS
   @ROHF iter   7:  -230.44745021644127   -1.64988e-04   1.34399e-03 DIIS
   @ROHF iter   8:  -230.44750090324641   -5.06868e-05   8.20706e-04 DIIS
   @ROHF iter   9:  -230.44750157857584   -6.75329e-07   8.47926e-05 DIIS
   @ROHF iter  10:  -230.44750162921332   -5.06375e-08   2.58679e-05 DIIS
   @ROHF iter  11:  -230.44750163082381   -1.61049e-09   5.59537e-06 DIIS
   @ROHF iter  12:  -230.44750163088958   -6.57678e-11   1.01282e-06 DIIS
   @ROHF iter  13:  -230.44750163089140   -1.81899e-12   1.61164e-07 DIIS
   @ROHF iter  14:  -230.44750163089145   -5.68434e-14   3.01636e-08 DIIS

  ==> Post-Iterations <==

	Orbital Energies (a.u.)
	-----------------------

	Doubly Occupied:                                                      

	   1B3u  -11.308822     1Ag   -11.308814     1B2u  -11.220384  
	   2Ag   -11.220338     1B1g  -11.219263     2B3u  -11.219235  
	   3Ag    -1.165998     3B3u   -1.041739     2B2u   -1.010674  
	   4Ag    -0.836488     2B1g   -0.834390     5Ag    -0.722858  
	   4B3u   -0.660665     3B2u   -0.627471     5B3u   -0.606822  
	   4B2u   -0.579442     6Ag    -0.499589     3B1g   -0.494682  
	   1B1u   -0.489352     1B3g   -0.342644  

	Singly Occupied:                                                      

	   1B2g   -0.236662     1Au     0.026284  

	Virtual:                                                              

	   2B1u    0.128375     7Ag     0.272266     4B1g    0.275962  
	   8Ag     0.305708     6B3u    0.306210     2B2g    0.306236  
	   5B2u    0.330590     7B3u    0.335115     8B3u    0.396563  
	   6B2u    0.415615     7B2u    0.425592     3B1u    0.471968  
	   9Ag     0.487960     5B1g    0.498197     3B2g    0.520648  
	  10Ag     0.529080     6B1g    0.541961     2B3g    0.543733  
	   9B3u    0.566498    11Ag     0.577791     4B1u    0.617083  
	   2Au     0.622897     7B1g    0.647665     8B2u    0.681417  
	  12Ag     0.685509    10B3u    0.691181     4B2g    0.705244  
	  13Ag     0.863160     8B1g    0.868622     9B2u    0.879422  
	  11B3u    0.891449    12B3u    0.984290     9B1g    1.090323  
	  14Ag     1.158187    10B1g    1.181208    13B3u    1.204309  
	  10B2u    1.238301    14B3u    1.247051    15Ag     1.410412  
	  15B3u    1.467377    11B2u    1.498832    16Ag     1.595564  
	  11B1g    1.622173    16B3u    1.831803    17Ag    23.665163  
	  17B3u   23.898595    12B2u   23.963081    18Ag    24.019799  
	  12B1g   24.073285    18B3u   24.186593  

	Final Occupation by Irrep:
	         Ag   B1g   B2g   B3g    Au   B1u   B2u   B3u 
	DOCC [     6,    3,    0,    1,    0,    1,    4,    5 ]
	SOCC [     0,    0,    1,    0,    1,    0,    0,    0 ]

  Energy converged.

  @ROHF Final Energy:  -230.44750163089145

   => Energetics <=

    Nuclear Repulsion Energy =        203.6505633938271558
    One-Electron Energy =            -712.8175667569328198
    Two-Electron Energy =             278.7195017322142121
    DFT Functional Energy =             0.0000000000000000
    Empirical Dispersion Energy =       0.0000000000000000
    Total Energy =                   -230.4475016308914519

  ==> Properties <==

  Nuclear Dipole Moment: (a.u.)
     X:    -0.0000      Y:     0.0000      Z:     0.0000

  Electronic Dipole Moment: (a.u.)
     X:     0.0000      Y:     0.0000      Z:     0.0000

  Dipole Moment: (a.u.)
     X:    -0.0000      Y:     0.0000      Z:     0.0000     Total:     0.0000

  Dipole Moment: (Debye)
     X:    -0.0000      Y:     0.0000      Z:     0.0000     Total:     0.0000


  Saving occupied orbitals to File 180.

*** tstop() called on lawn-143-215-103-161.lawn.gatech.edu at Fri Apr 27 13:56:23 2012
Module time:
	user time   =       2.02 seconds =       0.03 minutes
	system time =       0.03 seconds =       0.00 minutes
	total time  =          2 seconds =       0.03 minutes
Total time:
	user time   =      52.20 seconds =       0.87 minutes
	system time =       0.31 seconds =       0.01 minutes
	total time  =         55 seconds =       0.92 minutes

*** tstart() called on lawn-143-215-103-161.lawn.gatech.edu
*** at Fri Apr 27 13:56:23 2012


         ---------------------------------------------------------
                                   SCF
            by Justin Turney, Rob Parrish, and Andy Simmonett
                              UHF Reference
                        1 Threads,    250 MiB Core
         ---------------------------------------------------------

  ==> Geometry <==

    Molecular point group: d2h

    Geometry (in Angstrom), charge = 0, multiplicity = 3:

       Center              X                  Y                   Z       
    ------------   -----------------  -----------------  -----------------
           C         -1.396185438916    -0.000000000000     0.000000000000
           C         -0.698092700929     1.209131812396    -0.000000000000
           C         -0.698092700929    -1.209131812396     0.000000000000
           C          0.698092700929     1.209131812396     0.000000000000
           C          0.698092700929    -1.209131812396    -0.000000000000
           C          1.396185438916     0.000000000000     0.000000000000
           H         -2.468768375208    -0.000000000000     0.000000000000
           H         -1.234384195550     2.138015823479    -0.000000000000
           H         -1.234384195550    -2.138015823479     0.000000000000
           H          1.234384195550     2.138015823479    -0.000000000000
           H          1.234384195550    -2.138015823479     0.000000000000
           H          2.468768375208     0.000000000000     0.000000000000

  Running in d2h symmetry.

  Nuclear repulsion =  203.650563393827156

  Charge       = 0
  Multiplicity = 3
  Electrons    = 42
  Nalpha       = 22
  Nbeta        = 20

  ==> Algorithm <==

  SCF Algorithm Type is PK.
  DIIS enabled.
  MOM disabled.
  Fractional occupation disabled.
  Guess Type is CORE.
  Energy threshold   = 1.00e-08
  Density threshold  = 1.00e-08
  Integral threshold = 0.00e+00

  ==> Primary Basis <==

  Basis Set: DZ
    Number of shells: 48
    Number of basis function: 72
    Number of Cartesian functions: 72
    Spherical Harmonics?: true
    Max angular momentum: 1

  ==> Pre-Iterations <==

  Minimum eigenvalue in the overlap matrix is 1.3223948348E-03.
  Using Symmetric Orthogonalization.
  SCF Guess: Core (One-Electron) Hamiltonian.

  Initial UHF energy:  -173.63061232150000

   -------------------------------------------------------
    Irrep   Nso     Nmo     Nalpha   Nbeta   Ndocc  Nsocc
   -------------------------------------------------------
     Ag        18      18       5       5       5       0
     B1g       12      12       4       4       4       0
     B2g        4       4       1       0       0       1
     B3g        2       2       1       1       1       0
     Au         2       2       1       0       0       1
     B1u        4       4       1       1       1       0
     B2u       12      12       4       4       4       0
     B3u       18      18       5       5       5       0
   -------------------------------------------------------
    Total      72      72      22      20      20       2
   -------------------------------------------------------

  ==> Integral Setup <==

 MINTS: Wrapper to libmints.
   by Justin Turney

   Calculation information:
      Number of atoms:                  12
      Number of AO shells:              48
      Number of SO shells:              16
      Number of primitives:            108
      Number of atomic orbitals:        72
      Number of basis functions:        72

      Number of irreps:                  8
      Number of functions per irrep: [  18   12    4    2    2    4   12   18 ]

      Overlap, kinetic, potential, dipole, and quadrupole integrals
        stored in file 35.

      Computing two-electron integrals...done
      Computed 523454 non-zero two-electron integrals.
        Stored in file 33.

  ==> Iterations <==

                        Total Energy        Delta E     Density RMS

   @UHF iter   1:  -206.40977196649902   -3.27792e+01   0.00000e+00 
	Occupation by irrep:
	         Ag   B1g   B2g   B3g    Au   B1u   B2u   B3u 
	DOCC [     6,    3,    0,    0,    0,    0,    4,    7 ]
	SOCC [     0,    1,    1,    0,    0,    0,    0,    0 ]

   @UHF iter   2:  -202.26880241439142    4.14097e+00   5.26806e+00 DIIS
	Occupation by irrep:
	         Ag   B1g   B2g   B3g    Au   B1u   B2u   B3u 
	DOCC [     6,    3,    0,    1,    0,    1,    4,    5 ]
	SOCC [     0,    0,    1,    0,    1,    0,    0,    0 ]

   @UHF iter   3:  -229.80074578585942   -2.75319e+01   5.27943e+00 DIIS
   @UHF iter   4:  -230.42742272266815   -6.26677e-01   3.60707e-02 DIIS
   @UHF iter   5:  -230.45021498080558   -2.27923e-02   9.08234e-03 DIIS
   @UHF iter   6:  -230.45284396857630   -2.62899e-03   2.88320e-03 DIIS
   @UHF iter   7:  -230.45328362353985   -4.39655e-04   9.78945e-04 DIIS
   @UHF iter   8:  -230.45330276014772   -1.91366e-05   2.10514e-04 DIIS
   @UHF iter   9:  -230.45330847791911   -5.71777e-06   1.04413e-04 DIIS
   @UHF iter  10:  -230.45330943742829   -9.59509e-07   3.57639e-05 DIIS
   @UHF iter  11:  -230.45330949439079   -5.69625e-08   7.19177e-06 DIIS
   @UHF iter  12:  -230.45330949660359   -2.21280e-09   1.10804e-06 DIIS
   @UHF iter  13:  -230.45330949684956   -2.45961e-10   4.16737e-07 DIIS
   @UHF iter  14:  -230.45330949687076   -2.12026e-11   1.21306e-07 DIIS
   @UHF iter  15:  -230.45330949687178   -1.02318e-12   2.58536e-08 DIIS

  ==> Post-Iterations <==

   @Spin Contamination Metric:   2.520435745E-02
   @S^2 Expected:                2.000000000E+00
   @S^2 Observed:                2.025204357E+00
   @S   Expected:                1.000000000E+00
   @S   Observed:                1.000000000E+00

	Orbital Energies (a.u.)
	-----------------------

	Alpha Occupied:                                                       

	   1B3u  -11.310304     1Ag   -11.310286     1B2u  -11.224733  
	   2Ag   -11.224679     1B1g  -11.223704     2B3u  -11.223657  
	   3Ag    -1.186558     3B3u   -1.068806     2B2u   -1.025946  
	   2B1g   -0.853313     4Ag    -0.846772     5Ag    -0.727772  
	   4B3u   -0.668328     3B2u   -0.633697     5B3u   -0.612717  
	   4B2u   -0.582743     1B1u   -0.558762     6Ag    -0.502723  
	   3B1g   -0.498577     1B2g   -0.429221     1B3g   -0.388287  
	   1Au    -0.141500  

	Alpha Virtual:                                                        

	   2B1u    0.085888     2B2g    0.255677     7Ag     0.268965  
	   4B1g    0.271148     8Ag     0.302900     6B3u    0.302925  
	   5B2u    0.327936     7B3u    0.330527     8B3u    0.392614  
	   6B2u    0.413034     7B2u    0.425294     3B1u    0.453762  
	   9Ag     0.486193     5B1g    0.494241     3B2g    0.499562  
	  10Ag     0.521757     2B3g    0.528865     6B1g    0.530813  
	   9B3u    0.558047    11Ag     0.576567     4B1u    0.596100  
	   2Au     0.596675     7B1g    0.646688     4B2g    0.678127  
	   8B2u    0.678165    12Ag     0.679448    10B3u    0.680597  
	  13Ag     0.856467     8B1g    0.861414     9B2u    0.875582  
	  11B3u    0.886473    12B3u    0.974506     9B1g    1.085592  
	  14Ag     1.152763    10B1g    1.170951    13B3u    1.197453  
	  10B2u    1.232988    14B3u    1.240315    15Ag     1.410400  
	  15B3u    1.467505    11B2u    1.498641    16Ag     1.596043  
	  11B1g    1.621691    16B3u    1.830998    17Ag    23.663391  
	  17B3u   23.897869    12B2u   23.960112    18Ag    24.018346  
	  12B1g   24.070255    18B3u   24.184133  

	Beta Occupied:                                                        

	   1Ag   -11.302889     1B3u  -11.302889     1B2u  -11.217106  
	   2Ag   -11.217068     1B1g  -11.215897     2B3u  -11.215885  
	   3Ag    -1.145155     3B3u   -1.013875     2B2u   -0.995889  
	   4Ag    -0.825700     2B1g   -0.815616     5Ag    -0.717798  
	   4B3u   -0.652256     3B2u   -0.620749     5B3u   -0.600734  
	   4B2u   -0.576804     6Ag    -0.496309     3B1g   -0.490658  
	   1B1u   -0.423689     1B3g   -0.297757  

	Beta Virtual:                                                         

	   1B2g   -0.050810     2B1u    0.170089     1Au     0.183796  
	   7Ag     0.275884     4B1g    0.280652     8Ag     0.308711  
	   6B3u    0.310241     5B2u    0.333007     7B3u    0.339444  
	   2B2g    0.353313     8B3u    0.401105     6B2u    0.417795  
	   7B2u    0.426147     9Ag     0.490102     3B1u    0.492211  
	   5B1g    0.501831    10Ag     0.536628     3B2g    0.547552  
	   6B1g    0.553487     2B3g    0.559534     9B3u    0.575183  
	  11Ag     0.579150     4B1u    0.640942     7B1g    0.648636  
	   2Au     0.659600     8B2u    0.685057    12Ag     0.691772  
	  10B3u    0.701934     4B2g    0.737022    13Ag     0.870468  
	   8B1g    0.876400     9B2u    0.883864    11B3u    0.896325  
	  12B3u    0.994612     9B1g    1.095209    14Ag     1.164476  
	  10B1g    1.191143    13B3u    1.212488    10B2u    1.243245  
	  14B3u    1.253565    15Ag     1.410705    15B3u    1.468055  
	  11B2u    1.498614    16Ag     1.595627    11B1g    1.622308  
	  16B3u    1.832695    17Ag    23.668295    17B3u   23.902545  
	  12B2u   23.965002    18Ag    24.023184    12B1g   24.075267  
	  18B3u   24.189118  

	Final Occupation by Irrep:
	         Ag   B1g   B2g   B3g    Au   B1u   B2u   B3u 
	DOCC [     6,    3,    0,    1,    0,    1,    4,    5 ]
	SOCC [     0,    0,    1,    0,    1,    0,    0,    0 ]

  Energy converged.

  @UHF Final Energy:  -230.45330949687178

   => Energetics <=

    Nuclear Repulsion Energy =        203.6505633938271558
    One-Electron Energy =            -712.8199373677165340
    Two-Electron Energy =             278.7160644770175963
    DFT Functional Energy =             0.0000000000000000
    Empirical Dispersion Energy =       0.0000000000000000
    Total Energy =                   -230.4533094968717819

  ==> Properties <==

  Nuclear Dipole Moment: (a.u.)
     X:    -0.0000      Y:     0.0000      Z:     0.0000

  Electronic Dipole Moment: (a.u.)
     X:     0.0000      Y:     0.0000      Z:     0.0000

  Dipole Moment: (a.u.)
     X:    -0.0000      Y:     0.0000      Z:     0.0000     Total:     0.0000

  Dipole Moment: (Debye)
     X:    -0.0000      Y:     0.0000      Z:     0.0000     Total:     0.0000


  Saving occupied orbitals to File 180.

*** tstop() called on lawn-143-215-103-161.lawn.gatech.edu at Fri Apr 27 13:56:25 2012
Module time:
	user time   =       2.01 seconds =       0.03 minutes
	system time =       0.04 seconds =       0.00 minutes
	total time  =          2 seconds =       0.03 minutes
Total time:
	user time   =      54.21 seconds =       0.90 minutes
	system time =       0.35 seconds =       0.01 minutes
	total time  =         57 seconds =       0.95 minutes

Singlet-Triplet gap (vertical, UHF)   =     5.13 eV

Singlet-Triplet gap (vertical, ROHF)  =     5.28 eV

*** PSI4 exiting successfully. Buy a developer a beer!
