    -----------------------------------------------------------------------
          PSI4: An Open-Source Ab Initio Electronic Structure Package
                              PSI 4.0.0-beta1 Driver

               Git: Rev 8268e5ba0276eef671d5bc4a44cf66fa46407463

    J. M. Turney, A. C. Simmonett, R. M. Parrish, E. G. Hohenstein,
    F. A. Evangelista, J. T. Fermann, B. J. Mintz, L. A. Burns, J. J. Wilke,
    M. L. Abrams, N. J. Russ, M. L. Leininger, C. L. Janssen, E. T. Seidl,
    W. D. Allen, H. F. Schaefer, R. A. King, E. F. Valeev, C. D. Sherrill,
    and T. D. Crawford, WIREs Comput. Mol. Sci., (2011) (doi: 10.1002/wcms.93)

                         Additional Contributions by
    A. E. DePrince, M. Saitow, U. Bozkaya, A. Yu. Sokolov
    -----------------------------------------------------------------------


    Using LocalCommunicator (Number of processes = 1)

    Memory level set to 256.000 MB

  ==> Input File <==

--------------------------------------------------------------------------
#! MP(n)/aug-cc-pVDZ BH Energy Point, with n=2-19.  Compare against 
#! M. L. Leininger et al., J. Chem. Phys. 112, 9213 (2000)

memory 250 mb

# Test MP(10) at its equilibrium geometry
refnuc      =   2.1101925597355 #TEST
refscf      = -25.1262628711449 #TEST
refci_10    = -25.2183501083948 #TEST
refcorr_10  = refci_10 - refscf #TEST


molecule bh {
    B
    H 1 1.25386
}

set globals {
  basis aug-cc-pVDZ
  frozen_docc [1, 0, 0, 0]
}

thisenergy = energy('mp10')

compare_values(refnuc, bh.nuclear_repulsion_energy(), 9, "Nuclear repulsion energy") #TEST 
compare_values(refscf, get_variable("SCF total energy"),     8, "SCF energy") #TEST
compare_values(refci_10, thisenergy,                      8, "MP(10) energy") #TEST
compare_values(refcorr_10, get_variable("CURRENT CORRELATION ENERGY"), 8, "MP(10) correlation energy") #TEST

clean()

# Now test MP(19) at its equilibrium geometry
refnuc     =   2.1108491172106 #TEST
refscf     = -25.1262688035365 #TEST
refci_19   = -25.2184321372791 #TEST
refcorr_19 = refci_19 - refscf #TEST

molecule bh {
    B
    H 1 1.25347
}

set basis aug-cc-pVDZ

thisenergy = energy('mp19')

compare_values(refnuc, bh.nuclear_repulsion_energy(), 9, "Nuclear repulsion energy") #TEST 
compare_values(refscf, get_variable("SCF total energy"),     8, "SCF energy") #TEST
compare_values(refci_19, thisenergy,                      8, "MP(19) energy") #TEST
compare_values(refcorr_19, get_variable("CURRENT CORRELATION ENERGY"), 8, "MP(19) correlation energy") #TEST
--------------------------------------------------------------------------

  Memory set to 250.000 MiB by Python script.

*** tstart() called on lawn-143-215-103-161.lawn.gatech.edu
*** at Fri Apr 27 14:07:08 2012

	There are an even number of electrons - assuming singlet.
	Specify the multiplicity with the MULTP option in the
	input if this is incorrect


         ---------------------------------------------------------
                                   SCF
            by Justin Turney, Rob Parrish, and Andy Simmonett
                              RHF Reference
                        1 Threads,    250 MiB Core
         ---------------------------------------------------------

  ==> Geometry <==

    Molecular point group: c2v

    Geometry (in Angstrom), charge = 0, multiplicity = 1:

       Center              X                  Y                   Z       
    ------------   -----------------  -----------------  -----------------
           B          0.000000000000     0.000000000000    -0.105155844086
           H          0.000000000000     0.000000000000     1.148704155914

  Running in c2v symmetry.

  Nuclear repulsion =    2.110192559735537

  Charge       = 0
  Multiplicity = 1
  Electrons    = 6
  Nalpha       = 3
  Nbeta        = 3

  ==> Algorithm <==

  SCF Algorithm Type is PK.
  DIIS enabled.
  MOM disabled.
  Fractional occupation disabled.
  Guess Type is CORE.
  Energy threshold   = 1.00e-08
  Density threshold  = 1.00e-08
  Integral threshold = 0.00e+00

  ==> Primary Basis <==

  Basis Set: aug-cc-pVDZ
    Number of shells: 14
    Number of basis function: 32
    Number of Cartesian functions: 34
    Spherical Harmonics?: true
    Max angular momentum: 2

  ==> Pre-Iterations <==

  Minimum eigenvalue in the overlap matrix is 9.0975174035E-04.
  Using Symmetric Orthogonalization.
  SCF Guess: Core (One-Electron) Hamiltonian.

  Initial RHF energy:   -17.46129585488771

   -------------------------------------------------------
    Irrep   Nso     Nmo     Nalpha   Nbeta   Ndocc  Nsocc
   -------------------------------------------------------
     A1        16      16       3       3       3       0
     A2         2       2       0       0       0       0
     B1         7       7       0       0       0       0
     B2         7       7       0       0       0       0
   -------------------------------------------------------
    Total      32      32       3       3       3       0
   -------------------------------------------------------

  ==> Integral Setup <==

 MINTS: Wrapper to libmints.
   by Justin Turney

   Calculation information:
      Number of atoms:                   2
      Number of AO shells:              14
      Number of SO shells:              14
      Number of primitives:             32
      Number of atomic orbitals:        34
      Number of basis functions:        32

      Number of irreps:                  4
      Number of functions per irrep: [  16    2    7    7 ]

      Overlap, kinetic, potential, dipole, and quadrupole integrals
        stored in file 35.

      Computing two-electron integrals...done
      Computed 30407 non-zero two-electron integrals.
        Stored in file 33.

  ==> Iterations <==

                        Total Energy        Delta E     Density RMS

   @RHF iter   1:   -23.69747548649951   -6.23618e+00   0.00000e+00 
   @RHF iter   2:   -24.84615318829501   -1.14868e+00   1.31392e+00 DIIS
   @RHF iter   3:   -25.11161963833404   -2.65466e-01   4.14280e-01 DIIS
   @RHF iter   4:   -25.12514459453311   -1.35250e-02   2.17482e-02 DIIS
   @RHF iter   5:   -25.12622386236143   -1.07927e-03   6.38081e-03 DIIS
   @RHF iter   6:   -25.12626118866160   -3.73263e-05   4.47692e-04 DIIS
   @RHF iter   7:   -25.12626283211156   -1.64345e-06   2.78819e-04 DIIS
   @RHF iter   8:   -25.12626286991406   -3.78025e-08   4.14057e-05 DIIS
   @RHF iter   9:   -25.12626287112263   -1.20857e-09   7.36083e-06 DIIS
   @RHF iter  10:   -25.12626287114457   -2.19416e-11   4.80728e-07 DIIS
   @RHF iter  11:   -25.12626287114487   -2.94875e-13   1.04697e-07 DIIS
   @RHF iter  12:   -25.12626287114488   -1.42109e-14   1.25596e-08 DIIS

  ==> Post-Iterations <==

	Orbital Energies (a.u.)
	-----------------------

	Doubly Occupied:                                                      

	   1A1    -7.694188     2A1    -0.644282     3A1    -0.347965  

	Virtual:                                                              

	   1B1     0.026677     1B2     0.026677     4A1     0.053146  
	   5A1     0.065022     2B1     0.106594     2B2     0.106594  
	   6A1     0.130680     7A1     0.267893     3B1     0.274026  
	   3B2     0.274026     1A2     0.276104     8A1     0.276104  
	   9A1     0.357737    10A1     0.408335     4B1     0.497533  
	   4B2     0.497533     5B1     0.557838     5B2     0.557838  
	  11A1     0.711672    12A1     0.817978     2A2     1.054769  
	  13A1     1.054769     6B2     1.060657     6B1     1.060657  
	  14A1     1.107004    15A1     1.472558     7B2     2.026078  
	   7B1     2.026078    16A1     2.412621  

	Final Occupation by Irrep:
	         A1    A2    B1    B2 
	DOCC [     3,    0,    0,    0 ]

  Energy converged.

  @RHF Final Energy:   -25.12626287114488

   => Energetics <=

    Nuclear Repulsion Energy =          2.1101925597355367
    One-Electron Energy =             -37.1000412967674436
    Two-Electron Energy =               9.8635858658870195
    DFT Functional Energy =             0.0000000000000000
    Empirical Dispersion Energy =       0.0000000000000000
    Total Energy =                    -25.1262628711448883

  ==> Properties <==

  Nuclear Dipole Moment: (a.u.)
     X:     0.0000      Y:     0.0000      Z:     1.1772

  Electronic Dipole Moment: (a.u.)
     X:     0.0000      Y:     0.0000      Z:    -0.5150

  Dipole Moment: (a.u.)
     X:     0.0000      Y:     0.0000      Z:     0.6622     Total:     0.6622

  Dipole Moment: (Debye)
     X:     0.0000      Y:     0.0000      Z:     1.6831     Total:     1.6831


  Saving occupied orbitals to File 180.

*** tstop() called on lawn-143-215-103-161.lawn.gatech.edu at Fri Apr 27 14:07:08 2012
Module time:
	user time   =       0.11 seconds =       0.00 minutes
	system time =       0.01 seconds =       0.00 minutes
	total time  =          0 seconds =       0.00 minutes
Total time:
	user time   =       0.11 seconds =       0.00 minutes
	system time =       0.01 seconds =       0.00 minutes
	total time  =          0 seconds =       0.00 minutes

*** tstart() called on lawn-143-215-103-161.lawn.gatech.edu
*** at Fri Apr 27 14:07:08 2012


	**************************************************
	* TRANSQT2: Program to transform integrals from  *
	*           the SO basis to the MO basis.        *
	*                                                *
	*            Daniel, David, & Justin             *
	**************************************************


	Input parameters:
	-----------------
	Wave function   =	DETCI
	Backtransform   =	No
	Print Level     =	1
	Print TEIs      =	No
	Reference wfn   =	RHF
	Derivative      =	None
	Delete TEI File =	Yes
	Memory (Mbytes) =	250.0
	Cache Level     =	2
	Cache Type      =	LRU
	Chkpt Parameters:
	--------------------
	Number of irreps     = 4
	Number of SOs        = 32
	Number of MOs        = 32
	Number of active MOs = 31

	Label	# SOs	# FZDC	# DOCC	# SOCC	# VIRT	# FZVR
	-----	-----	------	------	------	------	------
	 A1	   16	    1	    2	    0	    13	    0
	 A2	   2	    0	    0	    0	    2	    0
	 B1	   7	    0	    0	    0	    7	    0
	 B2	   7	    0	    0	    0	    7	    0

	Nuclear Rep. energy (chkpt) =      2.11019255973554
	SCF energy          (chkpt) =    -25.12626287114488

	Presorting SO-basis two-electron integrals.
	Sorting File: SO Ints (pq,rs) nbuckets = 1
	Frozen-core energy =  -22.829381017780161
	Starting first half-transformation.
	Sorting half-transformed integrals.
	Starting second half-transformation.
	Two-electron integral transformation complete.

*** tstop() called on lawn-143-215-103-161.lawn.gatech.edu at Fri Apr 27 14:07:08 2012
Module time:
	user time   =       0.03 seconds =       0.00 minutes
	system time =       0.02 seconds =       0.00 minutes
	total time  =          0 seconds =       0.00 minutes
Total time:
	user time   =       0.14 seconds =       0.00 minutes
	system time =       0.03 seconds =       0.00 minutes
	total time  =          0 seconds =       0.00 minutes

*** tstart() called on lawn-143-215-103-161.lawn.gatech.edu
*** at Fri Apr 27 14:07:08 2012


*******************************************************
                       D E T C I  

                   C. David Sherrill
                   Matt L. Leininger
                     18 June 1999
*******************************************************



Note: Calculation requested is a full CI.
Resetting EX_LEVEL to 4 and turning on all excitations


PARAMETERS: 
   EX LEVEL      =        4      H0 BLOCKSIZE =        1
   VAL EX LEVEL  =        0      H0 GUESS SIZE=        1
   H0COUPLINGSIZE=        0      H0 COUPLING  =       no
   NUM PRINT     =       20
   MAXITER       =       12      FREEZE CORE  =      yes
   NUM ROOTS     =        1      ICORE        =        1
   PRINT         =        1      FCI          =      yes
   R CONV        =   1.00e-04      MIXED        =      yes
   E CONV        =   1.00e-06      MIXED4       =      yes
   OEI FILE      =       35      R4S          =       no
   REPL OTF      =       no
   TEI FILE      =       72      DIAG METHOD  =      SEM
   PRECONDITIONER= DAVIDSON      UPDATE       =   DAVIDSON
   S             =   0.0000      Ms0          =      yes
   MAX NUM VECS  =        6
   RESTART       =       no
   GUESS VECTOR  =     UNIT      OPENTYPE     =     NONE
   REF SYM       =     auto
   COLLAPSE SIZE =        1      HD AVG       =    ORB_ENER
   LSE           =       no      LSE ITER     =        0
   HD OTF        =      yes      NO DFILE     =      yes
   MPN           =      yes      MPN SCHMIDT  =       no
   ZAPTN         =       no      MPN WIGNER   =      yes
   PERT Z        =   1.0000    FOLLOW ROOT  =        0
   NUM THREADS   =        1
   VECS WRITE    =       no      NUM VECS WRITE =        0
   FILTER GUESS  =       no      SF RESTRICT  =       no
   OPDM          =       no      TRANS DENSITY=       no

   FILES         =  50 51 52 53

   EX ALLOW      =  1  1  1  1 
   STATE AVERAGE =  1(1.00) 
   STATE AVERAGE =  1(1.00) 

ORBITALS:
   NMO          =       32      NUM ALP      =        3
   ORBS IN CI   =       31      NUM ALP EXPL =        2
   FROZEN CORE  =        1      NUM BET      =        3
   RESTR CORE   =        0      NUM BET EXPL =        2
   IOPEN        =       no
   RAS1 LVL     =        1      A RAS3 MAX   =        2
   RAS1 MIN     =        2      B RAS3 MAX   =        2
   A RAS1 LVL   =        1      RAS4 LVL     =       31
   A RAS1 MIN   =        1      A RAS4 MAX   =        0
   A RAS1 MAX   =        3      B RAS4 MAX   =        0
   B RAS1 LVL   =        1      RAS4 MAX     =        0
   B RAS1 MIN   =        1      A RAS34 MAX  =        2
   B RAS1 MAX   =        3      B RAS34 MAX  =        2
   RAS3 LVL     =        2      RAS34 MAX    =        4
   RAS3 MAX     =        4

   DOCC         =  3  0  0  0 
   SOCC         =  0  0  0  0 
   FROZEN DOCC  =  1  0  0  0 
   FROZEN UOCC  =  0  0  0  0 
   RAS 1        =  2  0  0  0 
   RAS 2        =  0  0  0  0 
   RAS 3        = 13  2  7  7 
   RAS 4        =  0  0  0  0 
*******************************************************


There are 465 alpha strings
There are 465 beta strings
CI space contains   21 blocks

CI space requires 56467 determinants

Check SCF Energy from 1- and 2-electron integrals

SCF Energy (ref):            -25.1262628711
Nuclear repulsion energy:      2.1101925597
One-electron energy:          -6.8296553883
Two-electron energy:           2.4225809752
Frozen core energy:          -22.8293810178
Total electronic energy:     -27.2364554309
Total SCF energy:            -25.1262628711

 CI vector/subblock length = 56467
 orb_energy[0] = -7.694188
   CalcInfo.escf =       -25.126262871144881
   CalcInfo.e0   =       -17.372869567879874
   CalcInfo.enuc =         2.110192559735537
   CalcInfo.e1   =        -9.863585863000544

   n         Corr. Energy 		 E(MPn) 		   n         Corr. Energy 		 E(MPn)

   0          0.000000000000000       -15.262677008144337
   1         -9.863585863000544       -25.126262871144881
   1         -9.863585863000532       -25.126262871144867
   2         -0.062543883515443       -25.188806754660323	  2        -0.062543883515443       -25.188806754660323
								  3        -0.017969987051773       -25.206776741712098
   3         -0.017969987051772       -25.206776741712094	  4        -0.006412370943535       -25.213189112655634
								  5        -0.002676959118185       -25.215866071773817
   4         -0.006412370943535       -25.213189112655630	  6        -0.001258696978555       -25.217124768752370
								  7        -0.000633869735904       -25.217758638488274
   5         -0.002676959118185       -25.215866071773817	  8        -0.000329724827230       -25.218088363315506
								  9        -0.000172511254424       -25.218260874569928
   6         -0.001258696978555       -25.217124768752370	 10        -0.000089233822454       -25.218350108392382
								 11        -0.000045011429331       -25.218395119821714

MP10 energy saved

EMPn = -25.2183501083924


        Total Time (s)     %Time 		%Relative
 -----------------------------------------------------
 Read      0.014642
 Write     0.005489
 Sigma1    0.012527
 Sigma2    0.095548
 Sigma3    0.535457
 S1 Thread 0.000000
 S2 Thread 0.000000
 S3 Thread 0.000000

		 "A good bug is a dead bug" 

			 - Starship Troopers

		 "I didn't write FORTRAN.  That's the problem."

			 - Edward Valeev


*** tstop() called on lawn-143-215-103-161.lawn.gatech.edu at Fri Apr 27 14:07:09 2012
Module time:
	user time   =       0.66 seconds =       0.01 minutes
	system time =       0.02 seconds =       0.00 minutes
	total time  =          1 seconds =       0.02 minutes
Total time:
	user time   =       0.80 seconds =       0.01 minutes
	system time =       0.05 seconds =       0.00 minutes
	total time  =          1 seconds =       0.02 minutes

*** tstart() called on lawn-143-215-103-161.lawn.gatech.edu
*** at Fri Apr 27 14:07:09 2012

	There are an even number of electrons - assuming singlet.
	Specify the multiplicity with the MULTP option in the
	input if this is incorrect


         ---------------------------------------------------------
                                   SCF
            by Justin Turney, Rob Parrish, and Andy Simmonett
                              RHF Reference
                        1 Threads,    250 MiB Core
         ---------------------------------------------------------

  ==> Geometry <==

    Molecular point group: c2v

    Geometry (in Angstrom), charge = 0, multiplicity = 1:

       Center              X                  Y                   Z       
    ------------   -----------------  -----------------  -----------------
           B          0.000000000000     0.000000000000    -0.105123136464
           H          0.000000000000     0.000000000000     1.148346863536

  Running in c2v symmetry.

  Nuclear repulsion =    2.110849117210623

  Charge       = 0
  Multiplicity = 1
  Electrons    = 6
  Nalpha       = 3
  Nbeta        = 3

  ==> Algorithm <==

  SCF Algorithm Type is PK.
  DIIS enabled.
  MOM disabled.
  Fractional occupation disabled.
  Guess Type is CORE.
  Energy threshold   = 1.00e-08
  Density threshold  = 1.00e-08
  Integral threshold = 0.00e+00

  ==> Primary Basis <==

  Basis Set: aug-cc-pVDZ
    Number of shells: 14
    Number of basis function: 32
    Number of Cartesian functions: 34
    Spherical Harmonics?: true
    Max angular momentum: 2

  ==> Pre-Iterations <==

  Minimum eigenvalue in the overlap matrix is 9.0895808818E-04.
  Using Symmetric Orthogonalization.
  SCF Guess: Core (One-Electron) Hamiltonian.

  Initial RHF energy:   -17.46113621548760

   -------------------------------------------------------
    Irrep   Nso     Nmo     Nalpha   Nbeta   Ndocc  Nsocc
   -------------------------------------------------------
     A1        16      16       3       3       3       0
     A2         2       2       0       0       0       0
     B1         7       7       0       0       0       0
     B2         7       7       0       0       0       0
   -------------------------------------------------------
    Total      32      32       3       3       3       0
   -------------------------------------------------------

  ==> Integral Setup <==

 MINTS: Wrapper to libmints.
   by Justin Turney

   Calculation information:
      Number of atoms:                   2
      Number of AO shells:              14
      Number of SO shells:              14
      Number of primitives:             32
      Number of atomic orbitals:        34
      Number of basis functions:        32

      Number of irreps:                  4
      Number of functions per irrep: [  16    2    7    7 ]

      Overlap, kinetic, potential, dipole, and quadrupole integrals
        stored in file 35.

      Computing two-electron integrals...done
      Computed 30407 non-zero two-electron integrals.
        Stored in file 33.

  ==> Iterations <==

                        Total Energy        Delta E     Density RMS

   @RHF iter   1:   -23.69761424455698   -6.23648e+00   0.00000e+00 
   @RHF iter   2:   -24.84660562100178   -1.14899e+00   1.31580e+00 DIIS
   @RHF iter   3:   -25.11164400457618   -2.65038e-01   4.13826e-01 DIIS
   @RHF iter   4:   -25.12515213535952   -1.35081e-02   2.17492e-02 DIIS
   @RHF iter   5:   -25.12622986301196   -1.07773e-03   6.37629e-03 DIIS
   @RHF iter   6:   -25.12626712481267   -3.72618e-05   4.47262e-04 DIIS
   @RHF iter   7:   -25.12626876460562   -1.63979e-06   2.78806e-04 DIIS
   @RHF iter   8:   -25.12626880230778   -3.77022e-08   4.13463e-05 DIIS
   @RHF iter   9:   -25.12626880351438   -1.20660e-09   7.35133e-06 DIIS
   @RHF iter  10:   -25.12626880353625   -2.18705e-11   4.80459e-07 DIIS
   @RHF iter  11:   -25.12626880353655   -2.98428e-13   1.04570e-07 DIIS
   @RHF iter  12:   -25.12626880353655   -3.55271e-15   1.25261e-08 DIIS

  ==> Post-Iterations <==

	Orbital Energies (a.u.)
	-----------------------

	Doubly Occupied:                                                      

	   1A1    -7.694141     2A1    -0.644379     3A1    -0.347955  

	Virtual:                                                              

	   1B1     0.026680     1B2     0.026680     4A1     0.053140  
	   5A1     0.065020     2B1     0.106598     2B2     0.106598  
	   6A1     0.130694     7A1     0.267951     3B2     0.274028  
	   3B1     0.274028     1A2     0.276106     8A1     0.276106  
	   9A1     0.357689    10A1     0.408366     4B1     0.497530  
	   4B2     0.497530     5B1     0.557893     5B2     0.557893  
	  11A1     0.711732    12A1     0.818154    13A1     1.054779  
	   2A2     1.054779     6B2     1.060695     6B1     1.060695  
	  14A1     1.106876    15A1     1.472893     7B1     2.026209  
	   7B2     2.026209    16A1     2.413174  

	Final Occupation by Irrep:
	         A1    A2    B1    B2 
	DOCC [     3,    0,    0,    0 ]

  Energy converged.

  @RHF Final Energy:   -25.12626880353655

   => Energetics <=

    Nuclear Repulsion Energy =          2.1108491172106234
    One-Electron Energy =             -37.1012861577269675
    Two-Electron Energy =               9.8641682369797881
    DFT Functional Energy =             0.0000000000000000
    Empirical Dispersion Energy =       0.0000000000000000
    Total Energy =                    -25.1262688035365542

  ==> Properties <==

  Nuclear Dipole Moment: (a.u.)
     X:     0.0000      Y:     0.0000      Z:     1.1768

  Electronic Dipole Moment: (a.u.)
     X:     0.0000      Y:     0.0000      Z:    -0.5141

  Dipole Moment: (a.u.)
     X:     0.0000      Y:     0.0000      Z:     0.6626     Total:     0.6626

  Dipole Moment: (Debye)
     X:     0.0000      Y:     0.0000      Z:     1.6843     Total:     1.6843


  Saving occupied orbitals to File 180.

*** tstop() called on lawn-143-215-103-161.lawn.gatech.edu at Fri Apr 27 14:07:09 2012
Module time:
	user time   =       0.10 seconds =       0.00 minutes
	system time =       0.01 seconds =       0.00 minutes
	total time  =          0 seconds =       0.00 minutes
Total time:
	user time   =       0.90 seconds =       0.02 minutes
	system time =       0.06 seconds =       0.00 minutes
	total time  =          1 seconds =       0.02 minutes

*** tstart() called on lawn-143-215-103-161.lawn.gatech.edu
*** at Fri Apr 27 14:07:09 2012


	**************************************************
	* TRANSQT2: Program to transform integrals from  *
	*           the SO basis to the MO basis.        *
	*                                                *
	*            Daniel, David, & Justin             *
	**************************************************


	Input parameters:
	-----------------
	Wave function   =	DETCI
	Backtransform   =	No
	Print Level     =	1
	Print TEIs      =	No
	Reference wfn   =	RHF
	Derivative      =	None
	Delete TEI File =	Yes
	Memory (Mbytes) =	250.0
	Cache Level     =	2
	Cache Type      =	LRU
	Chkpt Parameters:
	--------------------
	Number of irreps     = 4
	Number of SOs        = 32
	Number of MOs        = 32
	Number of active MOs = 31

	Label	# SOs	# FZDC	# DOCC	# SOCC	# VIRT	# FZVR
	-----	-----	------	------	------	------	------
	 A1	   16	    1	    2	    0	    13	    0
	 A2	   2	    0	    0	    0	    2	    0
	 B1	   7	    0	    0	    0	    7	    0
	 B2	   7	    0	    0	    0	    7	    0

	Nuclear Rep. energy (chkpt) =      2.11084911721062
	SCF energy          (chkpt) =    -25.12626880353655

	Presorting SO-basis two-electron integrals.
	Sorting File: SO Ints (pq,rs) nbuckets = 1
	Frozen-core energy =  -22.829643680200135
	Starting first half-transformation.
	Sorting half-transformed integrals.
	Starting second half-transformation.
	Two-electron integral transformation complete.

*** tstop() called on lawn-143-215-103-161.lawn.gatech.edu at Fri Apr 27 14:07:09 2012
Module time:
	user time   =       0.03 seconds =       0.00 minutes
	system time =       0.02 seconds =       0.00 minutes
	total time  =          0 seconds =       0.00 minutes
Total time:
	user time   =       0.93 seconds =       0.02 minutes
	system time =       0.08 seconds =       0.00 minutes
	total time  =          1 seconds =       0.02 minutes

*** tstart() called on lawn-143-215-103-161.lawn.gatech.edu
*** at Fri Apr 27 14:07:09 2012


*******************************************************
                       D E T C I  

                   C. David Sherrill
                   Matt L. Leininger
                     18 June 1999
*******************************************************



Note: Calculation requested is a full CI.
Resetting EX_LEVEL to 4 and turning on all excitations


PARAMETERS: 
   EX LEVEL      =        4      H0 BLOCKSIZE =        1
   VAL EX LEVEL  =        0      H0 GUESS SIZE=        1
   H0COUPLINGSIZE=        0      H0 COUPLING  =       no
   NUM PRINT     =       20
   MAXITER       =       12      FREEZE CORE  =      yes
   NUM ROOTS     =        1      ICORE        =        1
   PRINT         =        1      FCI          =      yes
   R CONV        =   1.00e-04      MIXED        =      yes
   E CONV        =   1.00e-06      MIXED4       =      yes
   OEI FILE      =       35      R4S          =       no
   REPL OTF      =       no
   TEI FILE      =       72      DIAG METHOD  =      SEM
   PRECONDITIONER= DAVIDSON      UPDATE       =   DAVIDSON
   S             =   0.0000      Ms0          =      yes
   MAX NUM VECS  =       10
   RESTART       =       no
   GUESS VECTOR  =     UNIT      OPENTYPE     =     NONE
   REF SYM       =     auto
   COLLAPSE SIZE =        1      HD AVG       =    ORB_ENER
   LSE           =       no      LSE ITER     =        0
   HD OTF        =      yes      NO DFILE     =      yes
   MPN           =      yes      MPN SCHMIDT  =       no
   ZAPTN         =       no      MPN WIGNER   =      yes
   PERT Z        =   1.0000    FOLLOW ROOT  =        0
   NUM THREADS   =        1
   VECS WRITE    =       no      NUM VECS WRITE =        0
   FILTER GUESS  =       no      SF RESTRICT  =       no
   OPDM          =       no      TRANS DENSITY=       no

   FILES         =  50 51 52 53

   EX ALLOW      =  1  1  1  1 
   STATE AVERAGE =  1(1.00) 
   STATE AVERAGE =  1(1.00) 

ORBITALS:
   NMO          =       32      NUM ALP      =        3
   ORBS IN CI   =       31      NUM ALP EXPL =        2
   FROZEN CORE  =        1      NUM BET      =        3
   RESTR CORE   =        0      NUM BET EXPL =        2
   IOPEN        =       no
   RAS1 LVL     =        1      A RAS3 MAX   =        2
   RAS1 MIN     =        2      B RAS3 MAX   =        2
   A RAS1 LVL   =        1      RAS4 LVL     =       31
   A RAS1 MIN   =        1      A RAS4 MAX   =        0
   A RAS1 MAX   =        3      B RAS4 MAX   =        0
   B RAS1 LVL   =        1      RAS4 MAX     =        0
   B RAS1 MIN   =        1      A RAS34 MAX  =        2
   B RAS1 MAX   =        3      B RAS34 MAX  =        2
   RAS3 LVL     =        2      RAS34 MAX    =        4
   RAS3 MAX     =        4

   DOCC         =  3  0  0  0 
   SOCC         =  0  0  0  0 
   FROZEN DOCC  =  1  0  0  0 
   FROZEN UOCC  =  0  0  0  0 
   RAS 1        =  2  0  0  0 
   RAS 2        =  0  0  0  0 
   RAS 3        = 13  2  7  7 
   RAS 4        =  0  0  0  0 
*******************************************************


There are 465 alpha strings
There are 465 beta strings
CI space contains   21 blocks

CI space requires 56467 determinants

Check SCF Energy from 1- and 2-electron integrals

SCF Energy (ref):            -25.1262688035
Nuclear repulsion energy:      2.1108491172
One-electron energy:          -6.8302808038
Two-electron energy:           2.4228065632
Frozen core energy:          -22.8296436802
Total electronic energy:     -27.2371179207
Total SCF energy:            -25.1262688035
 orb_energy[0] = -7.694141
   CalcInfo.escf =       -25.126268803536554
   CalcInfo.e0   =       -17.372949686652323
   CalcInfo.enuc =         2.110849117210623
   CalcInfo.e1   =        -9.864168234094855

   n         Corr. Energy 		 E(MPn) 		   n         Corr. Energy 		 E(MPn)

   0          0.000000000000000       -15.262100569441699
   1         -9.864168234094855       -25.126268803536554
   1         -9.864168234094858       -25.126268803536558
   2         -0.062540746444732       -25.188809549981286	  2        -0.062540746444732       -25.188809549981286
								  3        -0.017968438375737       -25.206777988357022
   3         -0.017968438375738       -25.206777988357025	  4        -0.006411478829132       -25.213189467186155
								  5        -0.002676557157740       -25.215866024343896
   4         -0.006411478829133       -25.213189467186158	  6        -0.001258566923887       -25.217124591267783
								  7        -0.000633864826932       -25.217758456094714
   5         -0.002676557157742       -25.215866024343899	  8        -0.000329765104271       -25.218088221198986
								  9        -0.000172560276822       -25.218260781475809
   6         -0.001258566923887       -25.217124591267787	 10        -0.000089277235376       -25.218350058711184
								 11        -0.000045045189610       -25.218395103900793
   7         -0.000633864826932       -25.217758456094717	 12        -0.000021860557546       -25.218416964458338
								 13        -0.000010005018822       -25.218426969477161
   8         -0.000329765104271       -25.218088221198990	 14        -0.000004162597918       -25.218431132075079
								 15        -0.000001434009293       -25.218432566084370
   9         -0.000172560276821       -25.218260781475809	 16        -0.000000262320031       -25.218432828404403
								 17         0.000000168657983       -25.218432659746419
  10         -0.000089277235376       -25.218350058711184	 18         0.000000272628468       -25.218432387117950
								 19         0.000000249839017       -25.218432137278935

MP19 energy saved

EMPn = -25.2184321372789


        Total Time (s)     %Time 		%Relative
 -----------------------------------------------------
 Read      0.045909
 Write     0.013261
 Sigma1    0.037507
 Sigma2    0.281296
 Sigma3    1.571341
 S1 Thread 0.000000
 S2 Thread 0.000000
 S3 Thread 0.000000

		 "A good bug is a dead bug" 

			 - Starship Troopers

		 "I didn't write FORTRAN.  That's the problem."

			 - Edward Valeev


*** tstop() called on lawn-143-215-103-161.lawn.gatech.edu at Fri Apr 27 14:07:11 2012
Module time:
	user time   =       1.28 seconds =       0.02 minutes
	system time =       0.04 seconds =       0.00 minutes
	total time  =          2 seconds =       0.03 minutes
Total time:
	user time   =       2.21 seconds =       0.04 minutes
	system time =       0.12 seconds =       0.00 minutes
	total time  =          3 seconds =       0.05 minutes

*** PSI4 exiting successfully. Buy a developer a beer!
