    -----------------------------------------------------------------------
          PSI4: An Open-Source Ab Initio Electronic Structure Package
                              PSI 4.0.0-beta1 Driver

               Git: Rev 8268e5ba0276eef671d5bc4a44cf66fa46407463

    J. M. Turney, A. C. Simmonett, R. M. Parrish, E. G. Hohenstein,
    F. A. Evangelista, J. T. Fermann, B. J. Mintz, L. A. Burns, J. J. Wilke,
    M. L. Abrams, N. J. Russ, M. L. Leininger, C. L. Janssen, E. T. Seidl,
    W. D. Allen, H. F. Schaefer, R. A. King, E. F. Valeev, C. D. Sherrill,
    and T. D. Crawford, WIREs Comput. Mol. Sci., (2011) (doi: 10.1002/wcms.93)

                         Additional Contributions by
    A. E. DePrince, M. Saitow, U. Bozkaya, A. Yu. Sokolov
    -----------------------------------------------------------------------


    Using LocalCommunicator (Number of processes = 1)

    Memory level set to 256.000 MB

  ==> Input File <==

--------------------------------------------------------------------------
#! Mk-MRCCSD(T) single point. $^1A@@1$ CH2 state described using
#! the Ms = 0 component of the singlet.  Uses RHF singlet orbitals.

memory 250 mb

refnuc      =    5.912862514729  #TEST
refscf      =  -38.911021663021  #TEST
refmkccsd_t =  -39.037898229468  #TEST

molecule ch2 {
  0 1
  C         0.000000000000    -0.071831139101     0.000000000000
  H         2.056713670133     0.427640533717     0.000000000000
  H        -2.056713670133     0.427640533717     0.000000000000

  units au
}

set {
  basis cc-pvdz
  e_convergence 10
  d_convergence 10
  r_convergence 10
}

set mcscf {
  reference       rohf
  # The socc and docc needn't be specified; in this case the code will converge correctly without
  docc            [2,0,1,0]      # Doubly occupied MOs
  socc            [1,0,0,1]      # Singly occupied MOs
}

set psimrcc {
  corr_wfn        ccsd_t         # Do Mk-MRCCSD(T) 
  frozen_docc     [0,0,0,0]      # Frozen MOs
  restricted_docc [2,0,1,0]      # Doubly occupied MOs
  active          [1,0,0,1]      # Active MOs
  frozen_uocc     [0,0,0,0]      # Frozen virtual MOs
  corr_multp      1              # Select the Ms = 0 component
  wfn_sym         B2             # Select the A1 state
  heff4           false
}

energy('psimrcc')
compare_values(refnuc, ch2.nuclear_repulsion_energy()     , 9, "Nuclear repulsion energy") #TEST 
compare_values(refscf, get_variable("SCF TOTAL ENERGY")  , 9, "SCF energy")               #TEST 
compare_values(refmkccsd_t, get_variable("CURRENT ENERGY") , 8, "MkCCSD energy")            #TEST 
--------------------------------------------------------------------------

  Memory set to 250.000 MiB by Python script.

         ------------------------------------------
           MCSCF: a self-consistent field program
            written by Francesco A. Evangelista
         ------------------------------------------    Molecular point group: c2v

    Geometry (in Bohr), charge = 0, multiplicity = 1:

       Center              X                  Y                   Z       
    ------------   -----------------  -----------------  -----------------
           C          0.000000000000     0.000000000000    -0.071831139101
           H          2.056713670133     0.000000000000     0.427640533717
           H         -2.056713670133    -0.000000000000     0.427640533717

  -AO BASIS SET INFORMATION:
    Name                   = cc-pvdz
    Total number of shells = 12
    Number of primitives   = 32
    Number of AO           = 25
    Number of SO           = 24
    Maximum AM             = 2
    Spherical Harmonics    = TRUE

  -Contraction Scheme:
    Atom   Type   All Primitives // Shells:
   ------ ------ --------------------------
       1     C     17s 4p 1d // 3s 2p 1d 
       2     H     4s 1p // 2s 1p 
       3     H     4s 1p // 2s 1p 

  -Basis set on unique center 1: C
     S (       6665.00000000           0.36358430)
       (       1000.00000000           0.67498579)
       (        228.00000000           1.13161994)
       (         64.71000000           1.65300921)
       (         21.06000000           1.92382064)
       (          7.49500000           1.44727832)
       (          2.79700000           0.43916313)
       (          0.52150000           0.00664580)
     S (       6665.00000000          -0.15417975)
       (       1000.00000000          -0.29378537)
       (        228.00000000          -0.48089580)
       (         64.71000000          -0.76143432)
       (         21.06000000          -0.90010389)
       (          7.49500000          -0.97261135)
       (          2.79700000          -0.39404195)
       (          0.52150000           0.47839442)
     S (          0.15960000           0.17996364)
     P (          9.43900000           1.34373711)
       (          2.00200000           1.06316809)
       (          0.54560000           0.50823183)
     P (          0.15170000           0.13494974)
     D (          0.55000000           0.57815484)

  -Basis set on unique center 2: H
     S (         13.01000000           0.16354842)
       (          1.96200000           0.27741754)
       (          0.44460000           0.31574931)
     S (          0.12200000           0.14712279)
     P (          0.72700000           0.95688138)

  -Basis set on unique center 3: H
     S (         13.01000000           0.16354842)
       (          1.96200000           0.27741754)
       (          0.44460000           0.31574931)
     S (          0.12200000           0.14712279)
     P (          0.72700000           0.95688138)

 MINTS: Wrapper to libmints.
   by Justin Turney

   Calculation information:
      Number of atoms:                   3
      Number of AO shells:              12
      Number of SO shells:               9
      Number of primitives:             32
      Number of atomic orbitals:        25
      Number of basis functions:        24

      Number of irreps:                  4
      Number of functions per irrep: [  11    2    7    4 ]

      Overlap, kinetic, potential, dipole, and quadrupole integrals
        stored in file 35.

      Computing two-electron integrals...done
      Computed 11412 non-zero two-electron integrals.
        Stored in file 33.



  MOs per irrep:                                      A1  A2  B1  B2 Total
  ----------------------------------------------------------------------------
  Total                                               11    2    7    4    24
  Doubly Occupied                                      2    0    1    0     3
  Active/Singly Occupied                               1    0    0    1     2
  ----------------------------------------------------------------------------

  Running an SCF calculation

  Generated 300 pairs
  Distributed as [107 A1][50 A2][85 B1][58 B2]
  batch   0 pq = [       0,     107] index = [               0,            5778]

  Allocated the PK matrix (5778 elements) 
  Allocated the  K matrix (5778 elements) 
  Reading the two-electron integrals to form PK and K ... 
  batch   0 ... done.


  =========================================================================================
         Cycle          Energy               D(Energy)            D(Density)            DIIS
  =========================================================================================== S
  @SCF    0      -35.306182112885     -35.306182112885       0.108674250013 S
  @SCF    1      -37.734567096232      -2.428384983348       0.106495116193 S
  @SCF    2      -38.693389625208      -0.958822528976       0.048129098118 S
  @SCF    3      -38.872526763594      -0.179137138385       0.014762708938 S
  @SCF    4      -38.906442299408      -0.033915535814       0.004934750163 S
  @SCF    5      -38.910369310753      -0.003927011345       0.002147999485 S
  @SCF    6      -38.910926536614      -0.000557225861       0.000541074671 S/E
  @SCF    7      -38.911006332339      -0.000079795726       0.000297991449 S/E
  @SCF    8      -38.911021622553      -0.000015290214       0.000094630067 S/E
  @SCF    9      -38.911021661943      -0.000000039390       0.000009417590 S/E
  @SCF   10      -38.911021662951      -0.000000001008       0.000000847917 S/E
  @SCF   11      -38.911021663019      -0.000000000068       0.000000441657 S/E
  @SCF   12      -38.911021663021      -0.000000000002       0.000000110950 S/E
  @SCF   13      -38.911021663021       0.000000000000       0.000000012946 S/E
  @SCF   14      -38.911021663021      -0.000000000000       0.000000000924 S/E
  @SCF   15      -38.911021663021       0.000000000000       0.000000000223 S/E
  @SCF   16      -38.911021663021      -0.000000000000       0.000000000040
  =========================================================================================

      * SCF total energy   =     -38.911021663021


  End of SCF
  MOs orthonormality check passed.

  Orbitals are canonicalized as:
  inactive (docc + uocc) : Fock(core)
  active   (actv)        : Fock(core)

  =========================================================================
  Eigenvalues (Eh)
  -------------------------------------------------------------------------
  Doubly occupied orbitals
      1    -11.249144  A1      2     -0.832273  A1      3     -0.600230  B1
  Active orbitals
      4     -0.119393  A1      5     -0.101822  B2
  Unoccupied orbitals
      6      0.192203  A1      7      0.255889  B1      8      0.558801  A1
      9      0.722857  B2     10      0.727209  A1     11      0.815014  B1
     12      0.917228  B1     13      0.990963  A1     14      1.173739  A2
     15      1.381505  B1     16      1.401341  A1     17      1.404815  B2
     18      1.717272  A1     19      1.772014  B2     20      2.053598  A1
     21      2.197022  B1     22      2.251307  A2     23      2.646863  B1
     24      3.077410  A1
  =========================================================================


  MCSCF Execution Completed.


*** tstop() called on lawn-143-215-103-161.lawn.gatech.edu at Fri Apr 27 14:41:37 2012
Module time:
	user time   =       0.19 seconds =       0.00 minutes
	system time =       0.09 seconds =       0.00 minutes
	total time  = 1335552097 seconds = 22259201.62 minutes
Total time:
	user time   =       0.19 seconds =       0.00 minutes
	system time =       0.09 seconds =       0.00 minutes
	total time  = 1335552097 seconds = 22259201.62 minutes

  MRCC          MRCC
   MRCC  MRCC  MRCC
   MRCC  MRCC  MRCC      PSIMRCC Version 0.9.3.3, July 2009
   MRCC  MRCC  MRCC      Multireference Coupled Cluster, written by
     MRCCMRCCMRCC        Francesco A. Evangelista and Andrew C. Simmonett
         MRCC            Compiled on Apr 27 2012 at 13:46:20
         MRCC            id = 6a707c99fd2213714c6c78cfcd145480721f0359 
       MRCCMRCC

  ==============================================================================
  System Info:
  ------------------------------------------------------------------------------
  Nuclear Energy   = 5.912862515      SCF Energy       = -38.911021663  

  MOs and Symmetry:
  ------------------------------------------------------------------------------
  nirreps          = 4                root             = 0         
  nso              = 24               nmo              = 24        
  nael             = 4                nbel             = 4         
  nactive_ael      = 1                nactive_bel      = 1         

  Details of the Computation:
  ------------------------------------------------------------------------------

  MOs per irrep:                                        A1  A2  B1  B2 Total
  ------------------------------------------------------------------------------
  Total                                                 11    2    7    4    24
  Frozen Occupied                                        0    0    0    0     0
  Doubly Occupied                                        2    0    1    0     3
  Active                                                 1    0    0    1     2
  External                                               8    2    6    3    19
  Frozen Virtual                                         0    0    0    0     0

  Model space
  ------------------------------------------------------------------------------
   0  |[22-][][2][+]>
   1  |[22+][][2][-]>
  ==============================================================================

  Allocated work array of size 23960 (0.02 MiB)
  Allocated buffer array of size 12608344 (12.02 MiB)	Presorting SO-basis two-electron integrals.
	Sorting File: SO Ints (nn|nn) nbuckets = 1
	Transforming the one-electron integrals and constructing Fock matrices
	Starting first half-transformation.
	Sorting half-transformed integrals.
	First half integral transformation complete.
	Starting second half-transformation.
	Two-electron integral transformation complete.


  Presorting two-electron integrals from IWL buffer
    Memory available                       =      237019656 bytes
    Memory available for presorting        =      177764742 bytes (75.0%)
    Memory required for in-core presort    =          99352 bytes
    Presorting is not required
    Reading irreps 0 -> 3 (12419 non-zero integrals)

  Sorting integrals:
    Memory available                       =      237015048 bytes
    Memory available for sorting           =      118507524 bytes (50.0%)

    Pass 1:
    Setting up the matrix list: added 240 matrices blocks
    Integrals from irreps 0 -> 3 will be read in core

    Frozen-core energy                     =          0.000000000

  Computing storage strategy:
    Input memory                           =      250000000 bytes
    Free memory                            =      237015048 bytes
    Free memory available for matrices     =      229904596 bytes ( 97%)
    Memory required by fock matrices       =           7240 bytes
    Memory required by integrals           =        1352776 bytes
    Memory required by other matrices      =        1997920 bytes
    Memory required for in-core algorithm  =        3357936 bytes
    PSIMRCC will perform a full in-core computation

  Options:
  ----------------------------------------------------------------------------
  ACTIVE               => [ 1, 0, 0, 1 ] !
  BENCH                => 0               
  CC_NUM_THREADS       => 1               
  CORR_ANSATZ          => MK              
  CORR_CCSD_T          => STANDARD        
  CORR_CHARGE          => 0               
  CORR_MULTP           => 1              !
  CORR_REFERENCE       => GENERAL         
  CORR_WFN             => CCSD_T         !
  COUPLING             => CUBIC           
  COUPLING_TERMS       => TRUE            
  DAMPING_PERCENTAGE   => 0               
  DEBUG                => 0               
  DERTYPE              => NONE            
  DIAGONALIZE_HEFF     => FALSE           
  DIAGONAL_CCSD_T      => TRUE            
  DIIS_MAX_VECS        => 7               
  DIIS_START           => 2               
  DOCC                 => [  ]            
  E_CONVERGENCE        => 1e-10          !
  FAVG_CCSD_T          => FALSE           
  FOLLOW_ROOT          => 1               
  FREEZE_CORE          => FALSE           
  FROZEN_DOCC          => [ 0, 0, 0, 0 ] !
  FROZEN_UOCC          => [ 0, 0, 0, 0 ] !
  HEFF4                => FALSE          !
  HEFF_PRINT           => FALSE           
  LOCK_SINGLET         => FALSE           
  MAT_NUM_COLUMN_PRINT => 5               
  MAXITER              => 100             
  MP2_CCSD_METHOD      => II              
  MP2_GUESS            => TRUE            
  NO_SINGLES           => FALSE           
  NUM_FROZEN_DOCC      => 0               
  NUM_FROZEN_UOCC      => 0               
  OFFDIAGONAL_CCSD_T   => TRUE            
  PERTURB_CBS          => FALSE           
  PERTURB_CBS_COUPLING => TRUE            
  PRINT                => 1               
  PROPERTIES           => [  ]            
  PT_ENERGY            => SECOND_ORDER    
  PUREAM               => TRUE            
  RESTRICTED_DOCC      => [ 2, 0, 1, 0 ] !
  R_CONVERGENCE        => 1e-10          !
  SMALL_CUTOFF         => 0               
  SOCC                 => [  ]            
  TIKHONOW_MAX         => 5               
  TIKHONOW_OMEGA       => 0               
  TIKHONOW_TRIPLES     => FALSE           
  TRIPLES_ALGORITHM    => RESTRICTED      
  TRIPLES_DIIS         => FALSE           
  UNITS                => ANGSTROMS       
  USE_SPIN_SYM         => TRUE            
  USE_SPIN_SYMMETRY    => TRUE            
  WFN                  => SCF             
  WFN_SYM              => B2             !
  ZERO_INTERNAL_AMPS   => TRUE            



  Heff Matrix

         -38.876572843760         0.034448819262
           0.034448819262       -38.876572843760

  Left Matrix

          -0.707106781187         0.707106781187
           0.707106781187         0.707106781187

  Right Matrix

          -0.707106781187         0.707106781187
           0.707106781187         0.707106781187

  Real                  Imaginary

        -38.911021663021           0.000000000000
        -38.842124024498           0.000000000000


  The eigenvalue for root 0 is -38.911021663021 (0.000000000000)

  Heff Matrix

      -38.876572843759796      0.034448819261514
        0.034448819261514    -38.876572843759796

  Most important determinants in the wave function

  determinant  eigenvector   eigenvector^2

            1    0.707107     0.500000  |[22+][][2][-]>
            0   -0.707107     0.500000  |[22-][][2][+]>

  ==============================================================================
  	Multireference Coupled Cluster
		Using the DPD Library
  ==============================================================================

  ------------------------------------------------------------------------------
  @CC Cycle      Energy          Delta E    ||DeltaT1|| ||DeltaT2|| Timing  DIIS
  @CC           (Hartree)       (Hartree)                           (Sec)
  ------------------------------------------------------------------------------
  @CC   0    -38.911021663021   0.0000e+00   0.000e+00   0.000e+00       0
  Tikhonow regularization turned on.  Omega = 0.000e+00   S
  @CC   1    -39.012803809277  -1.0178e-01   3.974e-02   1.631e-01       0
  Tikhonow regularization turned on.  Omega = 0.000e+00   S
  @CC   2    -39.029302489683  -1.6499e-02   1.140e-02   2.837e-02       0
  Tikhonow regularization turned on.  Omega = 0.000e+00   S
  @CC   3    -39.033143539278  -3.8410e-03   5.310e-03   1.014e-02       0
  Tikhonow regularization turned on.  Omega = 0.000e+00   S
  @CC   4    -39.034433659312  -1.2901e-03   3.008e-03   4.970e-03       0
  Tikhonow regularization turned on.  Omega = 0.000e+00   S
  @CC   5    -39.034989311964  -5.5565e-04   1.898e-03   2.751e-03       0   S
  @CC   6    -39.035266348601  -2.7704e-04   1.259e-03   1.651e-03       0   S/E
  @CC   7    -39.035663099750  -3.9675e-04   8.557e-04   1.048e-03       0   S
  @CC   8    -39.035658090608   5.0091e-06   3.493e-05   1.028e-04       0   S
  @CC   9    -39.035657804516   2.8609e-07   1.168e-05   5.413e-05       0   S
  @CC  10    -39.035657921889  -1.1737e-07   5.313e-06   3.550e-05       0   S
  @CC  11    -39.035658132828  -2.1094e-07   2.960e-06   2.422e-05       0   S
  @CC  12    -39.035658338737  -2.0591e-07   1.807e-06   1.683e-05       0   S
  @CC  13    -39.035658516352  -1.7761e-07   1.197e-06   1.181e-05       0   S/E
  @CC  14    -39.035659121554  -6.0520e-07   8.373e-07   8.338e-06       0   S
  @CC  15    -39.035659178938  -5.7384e-08   1.982e-07   2.149e-07       0   S
  @CC  16    -39.035659191003  -1.2065e-08   4.502e-08   7.110e-08       1   S
  @CC  17    -39.035659195727  -4.7235e-09   1.996e-08   3.668e-08       1   S
  @CC  18    -39.035659197974  -2.2469e-09   1.169e-08   2.116e-08       1   S
  @CC  19    -39.035659199197  -1.2238e-09   7.633e-09   1.296e-08       1   S
  @CC  20    -39.035659199914  -7.1614e-10   5.182e-09   8.240e-09       1   S/E
  @CC  21    -39.035659201161  -1.2478e-09   3.561e-09   5.365e-09       1   S
  @CC  22    -39.035659201164  -2.6006e-12   1.180e-10   3.901e-10       1   S
  @CC  23    -39.035659201169  -4.8246e-12   5.199e-11   2.045e-10       1   S
  @CC  24    -39.035659201172  -3.6309e-12   3.143e-11   1.365e-10       1   S
  @CC  25    -39.035659201175  -2.6645e-12   2.119e-11   9.469e-11       1
  ------------------------------------------------------------------------------

        Mk-MRCCSD total energy      =     -39.035659201175


  Heff Matrix

      -39.005469228427437      0.030189972747595
        0.030189972747595    -39.005469228427437

  Most important determinants in the wave function

  determinant  eigenvector   eigenvector^2

            1    0.707107     0.500000  |[22+][][2][-]>
            0   -0.707107     0.500000  |[22-][][2][+]>

  Timing for singles and doubles:             0.781861 s

  Computing (T) correction using the restricted loop algorithm.


  Mk-MRCCSD(T) diagonal contributions to the effective Hamiltonian:

   Ref         E[4]              E_T[4]            E_ST[4]           E_DT[4]
  ------------------------------------------------------------------------------
    0     -0.001945486774   -0.001938481421    0.000001473116   -0.000008478468
    1     -0.001945486774   -0.001938481421    0.000001473116   -0.000008478468
   Tot    -0.001945486774   -0.001938481421    0.000001473116   -0.000008478468
  ------------------------------------------------------------------------------

  Mk-MRCCSD(T) off-diagonal contributions to the effective Hamiltonian:

    0.000000000000    0.000293541513
    0.000293541513    0.000000000000

  Total     diagonal (T) correction:   -0.001945486774
  Total off-diagonal (T) correction:   -0.000293541513
  Total              (T) correction:   -0.002239028287

  Hamiltonian Matrix

      -39.007414715201243      0.030483514260718
        0.030483514260718    -39.007414715201243

  Computing the expectation value of Heff

      * Mk-MRCCSD(T) total energy   =        -39.037898229462

  Timing for triples:                         0.172370 s

  PSIMRCC job completed.
  Wall Time =             1.087530 s
  GEMM Time =             0.238179 s

  ==============================================================================
  Memory Usage Report

  Maximum memory used:     17.0 Mb 
  Number of objects still in memory: 0       Current bytes used: 0             
  ==============================================================================

*** PSI4 exiting successfully. Buy a developer a beer!
