    -----------------------------------------------------------------------
          PSI4: An Open-Source Ab Initio Electronic Structure Package
                              PSI 4.0.0-beta1 Driver

               Git: Rev 8268e5ba0276eef671d5bc4a44cf66fa46407463

    J. M. Turney, A. C. Simmonett, R. M. Parrish, E. G. Hohenstein,
    F. A. Evangelista, J. T. Fermann, B. J. Mintz, L. A. Burns, J. J. Wilke,
    M. L. Abrams, N. J. Russ, M. L. Leininger, C. L. Janssen, E. T. Seidl,
    W. D. Allen, H. F. Schaefer, R. A. King, E. F. Valeev, C. D. Sherrill,
    and T. D. Crawford, WIREs Comput. Mol. Sci., (2011) (doi: 10.1002/wcms.93)

                         Additional Contributions by
    A. E. DePrince, M. Saitow, U. Bozkaya, A. Yu. Sokolov
    -----------------------------------------------------------------------


    Using LocalCommunicator (Number of processes = 1)

    Memory level set to 256.000 MB

  ==> Input File <==

--------------------------------------------------------------------------
#! UHF-CCSD/cc-pVDZ $^{3}B@@1$ CH2 geometry optimization via analytic gradients

memory 250 mb

refnuc   =   6.07006654183091   #TEST
refscf   = -38.92658702693478   #TEST
refccsd  =  -0.11533612150975   #TEST
reftotal = -39.04192314844453   #TEST

molecule ch2 {
  0 3
  C
  H 1 1.1
  H 1 1.1 2 109.0
}

set globals {
  reference uhf
  basis cc-pvdz
  # The next 3 options control the geometry optimization tolerances
  max_disp_g_convergence  1e-6
  max_force_g_convergence 1.0e-6
  max_energy_g_convergence    7
  e_convergence 10
  d_convergence 10
}

optimize('CCSD')

compare_values(refnuc,   ch2.nuclear_repulsion_energy(),          5, "Nuclear repulsion energy")  #TEST
compare_values(refscf,   get_variable("SCF total energy"),        6, "SCF energy")                #TEST
compare_values(refccsd,  get_variable("CCSD correlation energy"), 6, "CCSD contribution")         #TEST
compare_values(reftotal, get_variable("Current energy"),          6, "Total energy")              #TEST
--------------------------------------------------------------------------

  Memory set to 250.000 MiB by Python script.

*** tstart() called on lawn-143-215-103-161.lawn.gatech.edu
*** at Fri Apr 27 14:11:54 2012


         ---------------------------------------------------------
                                   SCF
            by Justin Turney, Rob Parrish, and Andy Simmonett
                              UHF Reference
                        1 Threads,    250 MiB Core
         ---------------------------------------------------------

  ==> Geometry <==

    Molecular point group: c2v

    Geometry (in Angstrom), charge = 0, multiplicity = 3:

       Center              X                  Y                   Z       
    ------------   -----------------  -----------------  -----------------
           C          0.000000000000     0.000000000000    -0.091864689759
           H          0.000000000000    -0.895527070192     0.546908561523
           H          0.000000000000     0.895527070192     0.546908561523

  Running in c2v symmetry.

  Nuclear repulsion =    6.068298005568227

  Charge       = 0
  Multiplicity = 3
  Electrons    = 8
  Nalpha       = 5
  Nbeta        = 3

  ==> Algorithm <==

  SCF Algorithm Type is PK.
  DIIS enabled.
  MOM disabled.
  Fractional occupation disabled.
  Guess Type is CORE.
  Energy threshold   = 1.00e-10
  Density threshold  = 1.00e-10
  Integral threshold = 0.00e+00

  ==> Primary Basis <==

  Basis Set: CC-PVDZ
    Number of shells: 12
    Number of basis function: 24
    Number of Cartesian functions: 25
    Spherical Harmonics?: true
    Max angular momentum: 2

  ==> Pre-Iterations <==

  Minimum eigenvalue in the overlap matrix is 2.9429630952E-02.
  Using Symmetric Orthogonalization.
  SCF Guess: Core (One-Electron) Hamiltonian.

  Initial UHF energy:   -28.44231976508354

   -------------------------------------------------------
    Irrep   Nso     Nmo     Nalpha   Nbeta   Ndocc  Nsocc
   -------------------------------------------------------
     A1        11      11       3       2       2       1
     A2         2       2       0       0       0       0
     B1         4       4       1       0       0       1
     B2         7       7       1       1       1       0
   -------------------------------------------------------
    Total      24      24       5       3       3       2
   -------------------------------------------------------

  ==> Integral Setup <==

 MINTS: Wrapper to libmints.
   by Justin Turney

   Calculation information:
      Number of atoms:                   3
      Number of AO shells:              12
      Number of SO shells:               9
      Number of primitives:             32
      Number of atomic orbitals:        25
      Number of basis functions:        24

      Number of irreps:                  4
      Number of functions per irrep: [  11    2    4    7 ]

      Overlap, kinetic, potential, dipole, and quadrupole integrals
        stored in file 35.

      Computing two-electron integrals...done
      Computed 11412 non-zero two-electron integrals.
        Stored in file 33.

  ==> Iterations <==

                        Total Energy        Delta E     Density RMS

   @UHF iter   1:   -35.12226710194874   -6.67995e+00   0.00000e+00 
   @UHF iter   2:   -38.07619874146306   -2.95393e+00   2.47446e-01 DIIS
   @UHF iter   3:   -38.90113807687993   -8.24939e-01   1.43608e-01 DIIS
   @UHF iter   4:   -38.91579874172635   -1.46607e-02   1.40301e-02 DIIS
   @UHF iter   5:   -38.91721660276711   -1.41786e-03   4.09345e-03 DIIS
   @UHF iter   6:   -38.91736784949019   -1.51247e-04   9.92689e-04 DIIS
   @UHF iter   7:   -38.91737833035361   -1.04809e-05   1.86054e-04 DIIS
   @UHF iter   8:   -38.91737865537387   -3.25020e-07   2.06014e-05 DIIS
   @UHF iter   9:   -38.91737868524731   -2.98734e-08   4.77149e-06 DIIS
   @UHF iter  10:   -38.91737869162040   -6.37309e-09   2.80955e-06 DIIS
   @UHF iter  11:   -38.91737869222852   -6.08125e-10   1.05149e-06 DIIS
   @UHF iter  12:   -38.91737869225136   -2.28368e-11   2.88964e-07 DIIS
   @UHF iter  13:   -38.91737869225203   -6.67910e-13   5.56009e-08 DIIS
   @UHF iter  14:   -38.91737869225204   -1.42109e-14   1.19272e-08 DIIS
   @UHF iter  15:   -38.91737869225206   -1.42109e-14   1.11288e-09 DIIS
   @UHF iter  16:   -38.91737869225207   -1.42109e-14   3.75441e-10 DIIS

  ==> Post-Iterations <==

   @Spin Contamination Metric:   1.210199564E-02
   @S^2 Expected:                2.000000000E+00
   @S^2 Observed:                2.012101996E+00
   @S   Expected:                1.000000000E+00
   @S   Observed:                1.000000000E+00

	Orbital Energies (a.u.)
	-----------------------

	Alpha Occupied:                                                       

	   1A1   -11.279808     2A1    -0.948183     1B2    -0.574840  
	   3A1    -0.492222     1B1    -0.413890  

	Alpha Virtual:                                                        

	   4A1     0.199574     2B2     0.255473     3B2     0.587217  
	   5A1     0.632444     2B1     0.650424     6A1     0.740599  
	   4B2     0.855150     7A1     1.006855     1A2     1.182747  
	   8A1     1.193228     3B1     1.244502     9A1     1.721416  
	   5B2     1.726796     6B2     1.928609     4B1     1.997867  
	   2A2     2.036720    10A1     2.315622    11A1     2.698261  
	   7B2     2.743850  

	Beta Occupied:                                                        

	   1A1   -11.228970     2A1    -0.783471     1B2    -0.535233  

	Beta Virtual:                                                         

	   3A1     0.105281     1B1     0.159004     4A1     0.221021  
	   2B2     0.285269     3B2     0.620941     5A1     0.737973  
	   2B1     0.822031     6A1     0.832333     4B2     0.906448  
	   7A1     1.062088     1A2     1.257736     8A1     1.303650  
	   3B1     1.383571     5B2     1.732543     9A1     1.810140  
	   6B2     1.988311     4B1     2.039560     2A2     2.087798  
	  10A1     2.350790    11A1     2.720420     7B2     2.769588  

	Final Occupation by Irrep:
	         A1    A2    B1    B2 
	DOCC [     2,    0,    0,    1 ]
	SOCC [     1,    0,    1,    0 ]

  Energy converged.

  @UHF Final Energy:   -38.91737869225207

   => Energetics <=

    Nuclear Repulsion Energy =          6.0682980055682272
    One-Electron Energy =             -63.7147359527234585
    Two-Electron Energy =              18.7290592549031558
    DFT Functional Energy =             0.0000000000000000
    Empirical Dispersion Energy =       0.0000000000000000
    Total Energy =                    -38.9173786922520790

  ==> Properties <==

  Nuclear Dipole Moment: (a.u.)
     X:     0.0000      Y:     0.0000      Z:     1.0254

  Electronic Dipole Moment: (a.u.)
     X:     0.0000      Y:     0.0000      Z:    -0.7742

  Dipole Moment: (a.u.)
     X:     0.0000      Y:     0.0000      Z:     0.2512     Total:     0.2512

  Dipole Moment: (Debye)
     X:     0.0000      Y:     0.0000      Z:     0.6386     Total:     0.6386


  Saving occupied orbitals to File 180.

*** tstop() called on lawn-143-215-103-161.lawn.gatech.edu at Fri Apr 27 14:11:54 2012
Module time:
	user time   =       0.09 seconds =       0.00 minutes
	system time =       0.01 seconds =       0.00 minutes
	total time  =          0 seconds =       0.00 minutes
Total time:
	user time   =       0.09 seconds =       0.00 minutes
	system time =       0.01 seconds =       0.00 minutes
	total time  =          0 seconds =       0.00 minutes

*** tstart() called on lawn-143-215-103-161.lawn.gatech.edu
*** at Fri Apr 27 14:11:54 2012


	**************************************************
	* TRANSQT2: Program to transform integrals from  *
	*           the SO basis to the MO basis.        *
	*                                                *
	*            Daniel, David, & Justin             *
	**************************************************


	Input parameters:
	-----------------
	Wave function   =	CCSD
	Backtransform   =	No
	Print Level     =	1
	Print TEIs      =	No
	Reference wfn   =	UHF
	Derivative      =	First
	Delete TEI File =	Yes
	Memory (Mbytes) =	250.0
	Cache Level     =	2
	Cache Type      =	LRU
	Chkpt Parameters:
	--------------------
	Number of irreps     = 4
	Number of SOs        = 24
	Number of MOs        = 24
	Number of active MOs = 24

	Label	# SOs	# FZDC	# DOCC	# SOCC	# VIRT	# FZVR
	-----	-----	------	------	------	------	------
	 A1	   11	    0	    2	    1	    8	    0
	 A2	   2	    0	    0	    0	    2	    0
	 B1	   4	    0	    0	    1	    3	    0
	 B2	   7	    0	    1	    0	    6	    0

	Nuclear Rep. energy (chkpt) =      6.06829800556823
	SCF energy          (chkpt) =    -38.91737869225207

	Presorting SO-basis two-electron integrals.
	Sorting File: SO Ints (pq,rs) nbuckets = 1
	Frozen-core energy =    0.000000000000000
	Starting AA/AB first half-transformation.
	Sorting AA/AB half-transformed integrals.
	Starting AA second half-transformation.
	Starting AB second half-transformation.
	Starting BB first half-transformation.
	Sorting BB half-transformed integrals.
	Starting BB second half-transformation.
	Two-electron integral transformation complete.

*** tstop() called on lawn-143-215-103-161.lawn.gatech.edu at Fri Apr 27 14:11:55 2012
Module time:
	user time   =       0.02 seconds =       0.00 minutes
	system time =       0.02 seconds =       0.00 minutes
	total time  =          1 seconds =       0.02 minutes
Total time:
	user time   =       0.11 seconds =       0.00 minutes
	system time =       0.03 seconds =       0.00 minutes
	total time  =          1 seconds =       0.02 minutes

*** tstart() called on lawn-143-215-103-161.lawn.gatech.edu
*** at Fri Apr 27 14:11:55 2012


			**************************
			*                        *
			*         CCSORT         *
			*                        *
			**************************


	Input parameters:
	-----------------
	Wave function   =	CCSD
	Reference wfn   =	UHF
	Derivative      =	First
	Memory (Mbytes) =	250.0
	AO Basis        =	NONE
	Make (ab|cd)    =	True
	Make unpacked (ab|cd) =	True
	Cache Level     =	2
	Cache Type      =	LRU
	Local CC        =     No


	Chkpt Parameters:
	--------------------
	Number of irreps     = 4
	Number of MOs        = 24
	Number of active MOs = 24

	Label	# MOs	# FZDC	# DOCC	# SOCC	# VIRT	# FZVR
	-----	-----	------	------	------	------	------
	 A1	   11	    0	    2	    1	    8	    0
	 A2	   2	    0	    0	    0	    2	    0
	 B1	   4	    0	    0	    1	    3	    0
	 B2	   7	    0	    1	    0	    6	    0

	Nuclear Rep. energy (chkpt) =      6.06829800556823
	SCF energy          (chkpt) =    -38.91737869225207

	Size of irrep 0 of <AB|CD> integrals:      0.002 (MW) /      0.018 (MB)
	Size of irrep 1 of <AB|CD> integrals:      0.001 (MW) /      0.009 (MB)
	Size of irrep 2 of <AB|CD> integrals:      0.001 (MW) /      0.010 (MB)
	Size of irrep 3 of <AB|CD> integrals:      0.003 (MW) /      0.023 (MB)
	Total:                                     0.008 (MW) /      0.061 (MB)

	Size of irrep 0 of <ab|cd> integrals:      0.003 (MW) /      0.027 (MB)
	Size of irrep 1 of <ab|cd> integrals:      0.002 (MW) /      0.014 (MB)
	Size of irrep 2 of <ab|cd> integrals:      0.002 (MW) /      0.018 (MB)
	Size of irrep 3 of <ab|cd> integrals:      0.004 (MW) /      0.031 (MB)
	Total:                                     0.011 (MW) /      0.090 (MB)

	Size of irrep 0 of <Ab|Cd> integrals:      0.015 (MW) /      0.123 (MB)
	Size of irrep 1 of <Ab|Cd> integrals:      0.006 (MW) /      0.046 (MB)
	Size of irrep 2 of <Ab|Cd> integrals:      0.007 (MW) /      0.055 (MB)
	Size of irrep 3 of <Ab|Cd> integrals:      0.013 (MW) /      0.108 (MB)
	Total:                                     0.041 (MW) /      0.332 (MB)

	Size of irrep 0 of <IA|BC> integrals:      0.004 (MW) /      0.030 (MB)
	Size of irrep 1 of <IA|BC> integrals:      0.001 (MW) /      0.008 (MB)
	Size of irrep 2 of <IA|BC> integrals:      0.001 (MW) /      0.011 (MB)
	Size of irrep 3 of <IA|BC> integrals:      0.003 (MW) /      0.024 (MB)
	Total:                                     0.009 (MW) /      0.073 (MB)

	Size of irrep 0 of <ia|bc> integrals:      0.003 (MW) /      0.026 (MB)
	Size of irrep 1 of <ia|bc> integrals:      0.001 (MW) /      0.005 (MB)
	Size of irrep 2 of <ia|bc> integrals:      0.001 (MW) /      0.008 (MB)
	Size of irrep 3 of <ia|bc> integrals:      0.003 (MW) /      0.021 (MB)
	Total:                                     0.008 (MW) /      0.060 (MB)

	Size of irrep 0 of <Ia|Bc> integrals:      0.005 (MW) /      0.037 (MB)
	Size of irrep 1 of <Ia|Bc> integrals:      0.001 (MW) /      0.010 (MB)
	Size of irrep 2 of <Ia|Bc> integrals:      0.002 (MW) /      0.015 (MB)
	Size of irrep 3 of <Ia|Bc> integrals:      0.003 (MW) /      0.027 (MB)
	Total:                                     0.011 (MW) /      0.089 (MB)

	Size of irrep 0 of <iA|bC> integrals:      0.003 (MW) /      0.022 (MB)
	Size of irrep 1 of <iA|bC> integrals:      0.001 (MW) /      0.004 (MB)
	Size of irrep 2 of <iA|bC> integrals:      0.001 (MW) /      0.005 (MB)
	Size of irrep 3 of <iA|bC> integrals:      0.002 (MW) /      0.019 (MB)
	Total:                                     0.006 (MW) /      0.050 (MB)

	Size of irrep 0 of tIjAb amplitudes:       0.001 (MW) /      0.007 (MB)
	Size of irrep 1 of tIjAb amplitudes:       0.000 (MW) /      0.001 (MB)
	Size of irrep 2 of tIjAb amplitudes:       0.000 (MW) /      0.001 (MB)
	Size of irrep 3 of tIjAb amplitudes:       0.001 (MW) /      0.005 (MB)
	Total:                                     0.002 (MW) /      0.014 (MB)


	Sorting File: A <IJ|KL> nbuckets = 1
	Sorting File: B <AB|CD> nbuckets = 1
	Sorting File: C <IA|JB> nbuckets = 1
	Sorting File: D <IJ|AB> nbuckets = 1
	Sorting File: E <AI|JK> nbuckets = 1
	Sorting File: F <IA|BC> nbuckets = 1
	Sorting File: F <AI|BC> nbuckets = 1
	Sorting File: A <ij|kl> nbuckets = 1
	Sorting File: B <ab|cd> nbuckets = 1
	Sorting File: C <ia|jb> nbuckets = 1
	Sorting File: D <ij|ab> nbuckets = 1
	Sorting File: E <ai|jk> nbuckets = 1
	Sorting File: F <ia|bc> nbuckets = 1
	Sorting File: F <ai|bc> nbuckets = 1
	Sorting File: A <Ij|Kl> nbuckets = 1
	Sorting File: B <Ab|Cd> nbuckets = 1
	Sorting File: C <Ia|Jb> nbuckets = 1
	Sorting File: C <Ai|Bj> nbuckets = 1
	Sorting File: D <Ij|Ab> nbuckets = 1
	Sorting File: E <Ai|Jk> nbuckets = 1
	Sorting File: E <Ij|Ka> nbuckets = 1
	Sorting File: F <Ia|Bc> nbuckets = 1
	Sorting File: F <aI|bC> nbuckets = 1
	Sorting File: F <Ab|Ci> nbuckets = 1
	Sorting File: F <Ai|Bc> nbuckets = 1
	One-electron energy          =    -63.71473595279405
	Two-electron (AA) energy     =      5.37013793471672
	Two-electron (BB) energy     =      1.64169186786512
	Two-electron (AB) energy     =     11.71722945239191
	Two-electron energy          =     18.72905925497376
	Frozen-core energy (transqt) =      0.00000000000000
	Reference energy             =    -38.91737869225207

*** tstop() called on lawn-143-215-103-161.lawn.gatech.edu at Fri Apr 27 14:11:55 2012
Module time:
	user time   =       0.04 seconds =       0.00 minutes
	system time =       0.07 seconds =       0.00 minutes
	total time  =          0 seconds =       0.00 minutes
Total time:
	user time   =       0.15 seconds =       0.00 minutes
	system time =       0.10 seconds =       0.00 minutes
	total time  =          1 seconds =       0.02 minutes

*** tstart() called on lawn-143-215-103-161.lawn.gatech.edu
*** at Fri Apr 27 14:11:55 2012

			**************************
			*                        *
			*        CCENERGY        *
			*                        *
			**************************

	Nuclear Rep. energy (chkpt)   =    6.068298005568227
	SCF energy          (chkpt)   =  -38.917378692252072
	Reference energy    (file100) =  -38.917378692252072

	Input parameters:
	-----------------
	Wave function   =     CCSD
	Reference wfn   =     UHF
	Memory (Mbytes) =     250.0
	Maxiter         =     50
	Convergence     =     1.0e-07
	Restart         =     No
	DIIS            =     Yes
	AO Basis        =     NONE
	ABCD            =     NEW
	Cache Level     =     2
	Cache Type      =     LRU
	Print Level     =     1
	Num. of threads =     1
	# Amps to Print =     10
	Print MP2 Amps? =     No
	Analyze T2 Amps =     No
	Print Pair Ener =     No
	Local CC        =     No
	SCS-MP2         =     False
	SCSN-MP2        =     False
	SCS-CCSD        =     False

	            Solving CC Amplitude Equations
	            ------------------------------
  Iter             Energy              RMS        T1Diag      D1Diag    New D1Diag
  ----     ---------------------    ---------   ----------  ----------  ----------
     0        -0.095353982843192    0.000e+00    0.000000    0.000000    0.000000
     1        -0.110266544137369    3.737e-02    0.005013    0.000000    0.000000
     2        -0.114891353543265    1.453e-02    0.008836    0.000000    0.000000
     3        -0.115324840712309    5.355e-03    0.010951    0.000000    0.000000
     4        -0.115365473981696    1.590e-03    0.011467    0.000000    0.000000
     5        -0.115363321852001    4.133e-04    0.011469    0.000000    0.000000
     6        -0.115368451640648    1.485e-04    0.011447    0.000000    0.000000
     7        -0.115368914696647    5.418e-05    0.011431    0.000000    0.000000
     8        -0.115368689784987    1.449e-05    0.011427    0.000000    0.000000
     9        -0.115368894185937    3.829e-06    0.011426    0.000000    0.000000
    10        -0.115368896102105    1.230e-06    0.011426    0.000000    0.000000
    11        -0.115368878023613    2.944e-07    0.011426    0.000000    0.000000
    12        -0.115368880684102    7.396e-08    0.011426    0.000000    0.000000

	Iterations converged.


	Largest TIA Amplitudes:
	          1   0        -0.0061202783
	          4  13        -0.0055757565
	          1   2        -0.0053728911
	          1   1         0.0045269856
	          3  10        -0.0044643227
	          4  17         0.0042945246
	          3  11        -0.0042615578
	          4  14         0.0041869453
	          2   1        -0.0034574945
	          2   4        -0.0033930100

	Largest Tia Amplitudes:
	          1   0         0.0201527712
	          1   2         0.0108376317
	          2  17         0.0099808161
	          2  15         0.0066459891
	          2  19         0.0061259552
	          1   6        -0.0055673806
	          1   4        -0.0049145440
	          1   5        -0.0037649772
	          2  20         0.0032881320
	          1   1         0.0032013172

	Largest TIJAB Amplitudes:
	  3   2  10   1        -0.0308037370
	  4   3   8   2         0.0236253258
	  3   2  11   4        -0.0219460050
	  4   3  15  10        -0.0209042528
	  4   3  13  10        -0.0206618944
	  4   2  13   1        -0.0197290058
	  4   2  15   1        -0.0196745295
	  3   2  10   2        -0.0173927195
	  4   2  14   4         0.0154691818
	  4   2  14   2        -0.0154634274

	Largest Tijab Amplitudes:
	  2   1  11   9        -0.0103227606
	  2   1  16   1        -0.0077371147
	  2   1  16   0         0.0077090182
	  2   1  16   3        -0.0072993207
	  2   1  15   0        -0.0068600090
	  2   1  17   0        -0.0067733795
	  2   1  15   1        -0.0066037841
	  2   1  17   4         0.0063165633
	  2   1  15   4         0.0061108819
	  2   1  12   9        -0.0045929583

	Largest TIjAb Amplitudes:
	  4   2  15  17        -0.0339373939
	  4   2  13  15        -0.0325022870
	  3   1   2  11        -0.0318051313
	  4   2  13  17        -0.0297797882
	  4   2   2   2        -0.0291206477
	  4   2  14  16        -0.0279412314
	  3   2  10  17        -0.0258275152
	  2   1   4   0        -0.0257444551
	  4   2  15  15        -0.0257199817
	  3   2  10  15        -0.0255216161

	SCF energy       (chkpt)              =  -38.917378692252072
	Reference energy (file100)            =  -38.917378692252072

	Opposite-spin MP2 correlation energy  =    0.000000000000000
	Same-spin MP2 correlation energy      =    0.000000000000000
	MP2 correlation energy                =   -0.095353982843192
      * MP2 total energy                      =  -39.012732675095265

	Opposite-spin CCSD correlation energy =    0.000000000000000
	Same-spin CCSD correlation energy     =    0.000000000000000
	CCSD correlation energy               =   -0.115368880684102
      * CCSD total energy                     =  -39.032747572936174


*** tstop() called on lawn-143-215-103-161.lawn.gatech.edu at Fri Apr 27 14:11:57 2012
Module time:
	user time   =       0.40 seconds =       0.01 minutes
	system time =       0.40 seconds =       0.01 minutes
	total time  =          2 seconds =       0.03 minutes
Total time:
	user time   =       0.56 seconds =       0.01 minutes
	system time =       0.50 seconds =       0.01 minutes
	total time  =          3 seconds =       0.05 minutes

*** tstart() called on lawn-143-215-103-161.lawn.gatech.edu
*** at Fri Apr 27 14:11:57 2012


			**************************
			*                        *
			*         CCHBAR         *
			*                        *
			**************************


*** tstop() called on lawn-143-215-103-161.lawn.gatech.edu at Fri Apr 27 14:11:57 2012
Module time:
	user time   =       0.05 seconds =       0.00 minutes
	system time =       0.06 seconds =       0.00 minutes
	total time  =          0 seconds =       0.00 minutes
Total time:
	user time   =       0.61 seconds =       0.01 minutes
	system time =       0.56 seconds =       0.01 minutes
	total time  =          3 seconds =       0.05 minutes

*** tstart() called on lawn-143-215-103-161.lawn.gatech.edu
*** at Fri Apr 27 14:11:57 2012


			**************************
			*        CCLAMBDA        *
			**************************


	Nuclear Rep. energy (chkpt)   =    6.068298005568227
	Reference           (chkpt)   = 2
	SCF energy          (chkpt)   =  -38.917378692252072
	Reference energy    (CC_INFO) =  -38.917378692252072
	CCSD energy         (CC_INFO) =   -0.115368880684102
	Total CCSD energy   (CC_INFO) =  -39.032747572936174

	Input parameters:
	-----------------
	Maxiter       =      50
	Convergence   = 1.0e-07
	Restart       =     No
	Cache Level   =     2
	Model III     =     No
	DIIS          =     Yes
	AO Basis      =     No
	ABCD            =     NEW
	Local CC        =     No
	Paramaters for left-handed eigenvectors:
	    Irr   Root  Ground-State?    EOM energy        R0
	  1   0     0        Yes       0.0000000000   1.0000000000
	Labels for eigenvector 1:
	LIA 0 -1, Lia 0 -1, LIJAB 0 -1, Lijab 0 -1, LIjAb 0 -1, 2LIjAb - LIjbA 0 -1
	Symmetry of left-hand state: B1
	Symmetry of left-hand eigenvector: A1

	          Solving Lambda Equations
	          ------------------------
	Iter     PseudoEnergy or Norm         RMS  
	----     ---------------------     --------
	   0        -0.115336914057705    0.000e+00
	   1        -0.112948423487066    5.848e-03
	   2        -0.112434913251724    1.346e-03
	   3        -0.112383392447106    3.665e-04
	   4        -0.112383560858567    1.193e-04
	   5        -0.112381355848290    4.671e-05
	   6        -0.112380583454168    1.486e-05
	   7        -0.112380528465325    4.608e-06
	   8        -0.112380502905132    1.478e-06
	   9        -0.112380498218488    5.178e-07
	  10        -0.112380500566348    1.490e-07
	  11        -0.112380500801546    3.794e-08

	Largest LIA Amplitudes:
	          4  13        -0.0069776594
	          4  14         0.0060699250
	          1   0        -0.0058442509
	          1   2        -0.0057044289
	          3  11        -0.0049835561
	          1   1         0.0046316866
	          3  10        -0.0043864736
	          2   4        -0.0041541021
	          4  17         0.0039625140
	          2   1        -0.0034739302

	Largest Lia Amplitudes:
	          1   0         0.0188401635
	          1   2         0.0098401302
	          2  17         0.0090335643
	          2  15         0.0066160787
	          2  19         0.0055571344
	          1   6        -0.0051536228
	          1   4        -0.0048222935
	          1   1         0.0037768522
	          1   5        -0.0034786971
	          2  20         0.0028829317

	Largest LIJAB Amplitudes:
	  3   2  10   1        -0.0303772583
	  4   3   8   2         0.0228916994
	  3   2  11   4        -0.0214282061
	  4   3  15  10        -0.0203324260
	  4   3  13  10        -0.0201478535
	  4   2  13   1        -0.0192400944
	  4   2  15   1        -0.0191416994
	  3   2  10   2        -0.0171022970
	  3   1  10   3         0.0152156376
	  4   2  14   2        -0.0149693577

	Largest Lijab Amplitudes:
	  2   1  11   9        -0.0099410061
	  2   1  16   1        -0.0074492493
	  2   1  16   0         0.0074148302
	  2   1  16   3        -0.0070360034
	  2   1  15   0        -0.0066565845
	  2   1  17   0        -0.0066015098
	  2   1  15   1        -0.0063531852
	  2   1  17   4         0.0062162264
	  2   1  15   4         0.0059792147
	  2   1  12   9        -0.0044372564

	Largest LIjAb Amplitudes:
	  4   2  15  17        -0.0330691968
	  4   2  13  15        -0.0316339347
	  3   1   2  11        -0.0308403494
	  4   2  13  17        -0.0290559000
	  4   2   2   2        -0.0282363110
	  4   2  14  16        -0.0271268497
	  3   2  10  17        -0.0252304797
	  4   2  15  15        -0.0250645145
	  2   1   4   0        -0.0250373089
	  3   2  10  15        -0.0248813089

	Iterations converged.

	Overlap <L|e^T> =        0.94968189383

*** tstop() called on lawn-143-215-103-161.lawn.gatech.edu at Fri Apr 27 14:11:57 2012
Module time:
	user time   =       0.13 seconds =       0.00 minutes
	system time =       0.10 seconds =       0.00 minutes
	total time  =          0 seconds =       0.00 minutes
Total time:
	user time   =       0.74 seconds =       0.01 minutes
	system time =       0.66 seconds =       0.01 minutes
	total time  =          3 seconds =       0.05 minutes

*** tstart() called on lawn-143-215-103-161.lawn.gatech.edu
*** at Fri Apr 27 14:11:57 2012


			**************************
			*                        *
			*        CCDENSITY       *
			*                        *
			**************************


	Input parameters:
	-----------------
	Wave function    =   CCSD
	Reference wfn    =   UHF
	Dertype          = 1
	Tolerance        = 1.0e-14
	Cache Level      = 2
	AO Basis         = No
	OPDM Only        = No
	Relax OPDM       = Yes
	Compute Xi       = No
	Use Zeta         = No
	Xi connected     = Yes

	Nuclear Rep. energy (chkpt)   =    6.068298005568227
	SCF energy          (chkpt)   =  -38.917378692252072
	Reference energy    (file100) =  -38.917378692252072
	CCSD energy         (CC_INFO) =   -0.115368880684102
	Total CCSD energy   (CC_INFO) =  -39.032747572936174
	Number of States = 1

	Ground?  State     EOM Energy       R0
	  Yes     0 A1    0.0000000000   1.00000000

	Energies re-computed from CC density:
	-------------------------------------
	One-electron energy        =    0.141016040711906
	IJKL energy                =    0.027763845335170
	IJKA energy                =   -0.000353281354865
	IJAB energy                =   -0.224812595649742
	IBJA energy                =   -0.090070270087868
	CIAB energy                =   -0.001312771182357
	ABCD energy                =    0.032400150171564
	Total two-electron energy  =   -0.256384922768098
	CCSD    correlation energy =   -0.115368882056192
	Total CCSD    energy       =  -39.032747574308260

	Energies re-computed from Fock-adjusted CC density:
	---------------------------------------------------
	One-electron energy        =    0.087239213499573
	IJKL energy                =   -0.339382628045843
	IJKA energy                =    0.010456466735816
	IJAB energy                =   -0.224812595649742
	IBJA energy                =    0.320043282414985
	CIAB energy                =   -0.001312771182357
	ABCD energy                =    0.032400150171564
	Total two-electron energy  =   -0.202608095555577
	   CCSD correlation energy =   -0.115368882056004
	Total    CCSD energy       =  -39.032747574308075

	Energies re-computed from Mulliken density:
	-------------------------------------------
	One-electron energy        =    0.087239213499573
	IjKl energy                =   -0.187737727717524
	IJKL energy                =   -0.108978105856861
	ijkl energy                =   -0.042666794471459
	IjKa+iJkA energy           =    0.015715218045221
	IJKA energy                =   -0.021961378270531
	ijka energy                =    0.016702626961126
	IjAb energy                =   -0.171719704798884
	IJAB energy                =   -0.040971609602171
	ijab energy                =   -0.004838653099616
	IBJA energy                =    0.104375123831101
	ibja energy                =    0.047603863580903
	iBjA+IbJa energy           =    0.160781666853910
	cIaB+CiAb energy           =   -0.001473160515937
	CIAB energy                =    0.000216387720573
	ciab energy                =   -0.000055998386993
	AbCd energy                =    0.028352634652138
	ABCD energy                =    0.003735859234347
	abcd energy                =    0.000311656285079
	Total two-electron energy  =   -0.202608095555577
	CCSD    correlation energy =   -0.115368882056004
	Total CCSD    energy       =  -39.032747574308075

*** tstop() called on lawn-143-215-103-161.lawn.gatech.edu at Fri Apr 27 14:11:58 2012
Module time:
	user time   =       0.09 seconds =       0.00 minutes
	system time =       0.10 seconds =       0.00 minutes
	total time  =          1 seconds =       0.02 minutes
Total time:
	user time   =       0.84 seconds =       0.01 minutes
	system time =       0.76 seconds =       0.01 minutes
	total time  =          4 seconds =       0.07 minutes

*** tstart() called on lawn-143-215-103-161.lawn.gatech.edu
*** at Fri Apr 27 14:11:58 2012

 DERIV: Derivative code.
   by Justin Turney

  Cartesian Displacement SALCs
  By SALC:
  Number of SALCs: 3, nirreps: 1
  Project out translations: False
  Project out rotations: False
	irrep = 0, ncomponent = 1
		0: atom 0, direction z, coef 1.000000
	irrep = 0, ncomponent = 2
		0: atom 1, direction y, coef 0.707107
		1: atom 2, direction y, coef -0.707107
	irrep = 0, ncomponent = 2
		0: atom 1, direction z, coef 0.707107
		1: atom 2, direction z, coef 0.707107

  By Atomic Center:
  Number of atomic centers: 3
   Atomic Center 0:
	x component, size = 0
	y component, size = 0
	z component, size = 1
		0: salc 0, irrep 0, coef 1.000000
   Atomic Center 1:
	x component, size = 0
	y component, size = 1
		0: salc 1, irrep 0, coef 0.707107
	z component, size = 1
		0: salc 2, irrep 0, coef 0.707107
   Atomic Center 2:
	x component, size = 0
	y component, size = 1
		0: salc 1, irrep 0, coef -0.707107
	z component, size = 1
		0: salc 2, irrep 0, coef 0.707107

    Molecular point group: c2v

    Geometry (in Bohr), charge = 0, multiplicity = 3:

       Center              X                  Y                   Z       
    ------------   -----------------  -----------------  -----------------
           C          0.000000000000     0.000000000000    -0.173599104928
           H          0.000000000000    -1.692300907248     1.033507401008
           H          0.000000000000     1.692300907248     1.033507401008

	Presorting MO-basis TPDMs.
	Sorting File: MO TPDM (AA|AA) nbuckets = 1
	Sorting File: MO TPDM (AA|aa) nbuckets = 1
	Sorting File: MO TPDM (aa|aa) nbuckets = 1
	Starting first half-transformation.
	Sorting half-transformed TPDMs.
	First half integral transformation complete.


  -Nuclear Repulsion Energy 1st Derivatives:
     Atom            X                  Y                   Z
    ------   -----------------  -----------------  -----------------
       1        0.000000000000     0.000000000000     1.612694758402
       2        0.000000000000     1.217751421440    -0.806347379201
       3        0.000000000000    -1.217751421440    -0.806347379201


  -One-electron contribution to gradient:
     Atom            X                  Y                   Z
    ------   -----------------  -----------------  -----------------
       1        0.000000000000     0.000000000000    -4.391503885880
       2        0.000000000000    -2.838481372328     2.195751942940
       3        0.000000000000     2.838481372328     2.195751942940


  -Lagrangian contribution to gradient:
     Atom            X                  Y                   Z
    ------   -----------------  -----------------  -----------------
       1        0.000000000000     0.000000000000     0.302978008266
       2        0.000000000000     0.165415372003    -0.151489004133
       3        0.000000000000    -0.165415372003    -0.151489004133


  -Two-electron contribution to gradient:
     Atom            X                  Y                   Z
    ------   -----------------  -----------------  -----------------
       1        0.000000000000     0.000000000000     2.439960412744
       2        0.000000000000     1.470705815476    -1.219980206372
       3        0.000000000000    -1.470705815476    -1.219980206372


  -Total gradient:
     Atom            X                  Y                   Z
    ------   -----------------  -----------------  -----------------
       1        0.000000000000     0.000000000000    -0.035870706468
       2        0.000000000000     0.015391236591     0.017935353234
       3        0.000000000000    -0.015391236591     0.017935353234


*** tstop() called on lawn-143-215-103-161.lawn.gatech.edu at Fri Apr 27 14:11:58 2012
Module time:
	user time   =       0.19 seconds =       0.00 minutes
	system time =       0.04 seconds =       0.00 minutes
	total time  =          0 seconds =       0.00 minutes
Total time:
	user time   =       1.03 seconds =       0.02 minutes
	system time =       0.80 seconds =       0.01 minutes
	total time  =          4 seconds =       0.07 minutes

			----------------------------------
			 OPTKING: for geometry optimizations  
			  - R.A. King,  Bethel University   
			------------------------------------

	Internal coordinates to be generated automatically.
	Detected frag with atoms:  1 2 3
	---Fragment 1 Bond Connectivity---
	 1 : 2 3
	 2 : 1
	 3 : 1

	---Fragment 1 Geometry and Gradient---
	 C           0.0000000000        0.0000000000       -0.1735991049
	 H           0.0000000000       -1.6923009072        1.0335074010
	 H           0.0000000000        1.6923009072        1.0335074010
	             0.0000000000        0.0000000000       -0.0358707065
	             0.0000000000        0.0153912366        0.0179353532
	             0.0000000000       -0.0153912366        0.0179353532

	Previous optimization step data not found.  Starting new optimization.

	---Fragment 1 Intrafragment Coordinates---
	 - Coordinate -           - BOHR/RAD -       - ANG/DEG -
	 R(1,2)           =         2.078699	       1.100000
	 R(1,3)           =         2.078699	       1.100000
	 B(2,1,3)         =         1.902409	     109.000000

	Current energy   :       -39.0327475729

	Generating empirical Hessian (Schlegel '84) for each fragment.
	Going to follow RFO solution 1.
	Projected energy change by RFO approximation:        -0.0069006021

	Back-transformation to cartesian coordinates...
	Successfully converged to displaced geometry.

	---Internal Coordinate Step in ANG or DEG, aJ/ANG or AJ/DEG ---
	 ----------------------------------------------------------------------
	 Coordinate             Previous        Force       Change         New 
	 ----------             --------       ------       ------       ------
	 R(1,2)          =      1.100000     0.017426     0.003192     1.103192
	 R(1,3)          =      1.100000     0.017426     0.003192     1.103192
	 B(2,1,3)        =    109.000000     0.003723    16.130686   125.130686
	 ----------------------------------------------------------------------

  ==> Convergence Check <==

  Measures of convergence in internal coordinates in au.
  Criteria marked as inactive (o), active & met (*), and active & unmet ( ).
  --------------------------------------------------------------------------------------------- ~
   Step     Total Energy     Delta E     MAX Force     RMS Force      MAX Disp      RMS Disp    ~
  --------------------------------------------------------------------------------------------- ~
    Convergence Criteria    1.00e-07 *    1.00e-06 *             o    1.00e-06 *             o  ~
  --------------------------------------------------------------------------------------------- ~
      1     -39.03274757   -3.90e+01      4.89e-02      2.83e-02 o    2.82e-01      1.63e-01 o  ~
  ---------------------------------------------------------------------------------------------

	Writing optimization data to binary file.
	Structure for next step:
	Cartesian Geometry (au)
	    C     0.0000000000   0.0000000000  -0.0092029259
	    H     0.0000000000  -1.8502758281   0.9513093115
	    H     0.0000000000   1.8502758281   0.9513093115
			--------------------------
			 OPTKING Finished Execution 
			--------------------------

*** tstart() called on lawn-143-215-103-161.lawn.gatech.edu
*** at Fri Apr 27 14:11:58 2012


         ---------------------------------------------------------
                                   SCF
            by Justin Turney, Rob Parrish, and Andy Simmonett
                              UHF Reference
                        1 Threads,    250 MiB Core
         ---------------------------------------------------------

  ==> Geometry <==

    Molecular point group: c2v

    Geometry (in Angstrom), charge = 0, multiplicity = 3:

       Center              X                  Y                   Z       
    ------------   -----------------  -----------------  -----------------
           C          0.000000000000     0.000000000000    -0.073098072345
           H          0.000000000000    -0.979123797846     0.435183112262
           H          0.000000000000     0.979123797846     0.435183112262

  Running in c2v symmetry.

  Nuclear repulsion =    6.026367602626073

  Charge       = 0
  Multiplicity = 3
  Electrons    = 8
  Nalpha       = 5
  Nbeta        = 3

  ==> Algorithm <==

  SCF Algorithm Type is PK.
  DIIS enabled.
  MOM disabled.
  Fractional occupation disabled.
  Guess Type is CORE.
  Energy threshold   = 1.00e-10
  Density threshold  = 1.00e-10
  Integral threshold = 0.00e+00

  ==> Primary Basis <==

  Basis Set: CC-PVDZ
    Number of shells: 12
    Number of basis function: 24
    Number of Cartesian functions: 25
    Spherical Harmonics?: true
    Max angular momentum: 2

  ==> Pre-Iterations <==

  Minimum eigenvalue in the overlap matrix is 3.2430832803E-02.
  Using Symmetric Orthogonalization.
  SCF Guess: Core (One-Electron) Hamiltonian.

  Initial UHF energy:   -28.45339008708864

   -------------------------------------------------------
    Irrep   Nso     Nmo     Nalpha   Nbeta   Ndocc  Nsocc
   -------------------------------------------------------
     A1        11      11       3       2       2       1
     A2         2       2       0       0       0       0
     B1         4       4       1       0       0       1
     B2         7       7       1       1       1       0
   -------------------------------------------------------
    Total      24      24       5       3       3       2
   -------------------------------------------------------

  ==> Integral Setup <==

 MINTS: Wrapper to libmints.
   by Justin Turney

   Calculation information:
      Number of atoms:                   3
      Number of AO shells:              12
      Number of SO shells:               9
      Number of primitives:             32
      Number of atomic orbitals:        25
      Number of basis functions:        24

      Number of irreps:                  4
      Number of functions per irrep: [  11    2    4    7 ]

      Overlap, kinetic, potential, dipole, and quadrupole integrals
        stored in file 35.

      Computing two-electron integrals...done
      Computed 11412 non-zero two-electron integrals.
        Stored in file 33.

  ==> Iterations <==

                        Total Energy        Delta E     Density RMS

   @UHF iter   1:   -35.18086337753961   -6.72747e+00   0.00000e+00 
   @UHF iter   2:   -38.11418402436501   -2.93332e+00   2.48407e-01 DIIS
   @UHF iter   3:   -38.90866083578483   -7.94477e-01   1.46292e-01 DIIS
   @UHF iter   4:   -38.92353588654711   -1.48751e-02   1.47534e-02 DIIS
   @UHF iter   5:   -38.92533763130232   -1.80174e-03   4.66242e-03 DIIS
   @UHF iter   6:   -38.92559964090597   -2.62010e-04   1.44977e-03 DIIS
   @UHF iter   7:   -38.92562069097495   -2.10501e-05   2.78951e-04 DIIS
   @UHF iter   8:   -38.92562214861609   -1.45764e-06   3.07365e-05 DIIS
   @UHF iter   9:   -38.92562228709951   -1.38483e-07   1.26891e-05 DIIS
   @UHF iter  10:   -38.92562230681904   -1.97195e-08   7.42252e-06 DIIS
   @UHF iter  11:   -38.92562230758347   -7.64430e-10   1.28399e-06 DIIS
   @UHF iter  12:   -38.92562230760218   -1.87086e-11   2.64895e-07 DIIS
   @UHF iter  13:   -38.92562230760310   -9.16600e-13   6.16519e-08 DIIS
   @UHF iter  14:   -38.92562230760311   -1.42109e-14   1.17063e-08 DIIS
   @UHF iter  15:   -38.92562230760312   -7.10543e-15   1.34673e-09 DIIS
   @UHF iter  16:   -38.92562230760313   -7.10543e-15   4.24520e-10 DIIS

  ==> Post-Iterations <==

   @Spin Contamination Metric:   1.413707004E-02
   @S^2 Expected:                2.000000000E+00
   @S^2 Observed:                2.014137070E+00
   @S   Expected:                1.000000000E+00
   @S   Observed:                1.000000000E+00

	Orbital Energies (a.u.)
	-----------------------

	Alpha Occupied:                                                       

	   1A1   -11.275233     2A1    -0.942330     1B2    -0.596953  
	   3A1    -0.462706     1B1    -0.409720  

	Alpha Virtual:                                                        

	   4A1     0.196908     2B2     0.254626     5A1     0.614463  
	   3B2     0.636910     2B1     0.653355     6A1     0.682844  
	   4B2     0.872709     7A1     0.993228     1A2     1.162067  
	   8A1     1.254091     3B1     1.276078     5B2     1.599379  
	   9A1     1.713684     4B1     1.907409     6B2     2.009448  
	   2A2     2.116697    10A1     2.259490     7B2     2.716523  
	  11A1     2.780591  

	Beta Occupied:                                                        

	   1A1   -11.225699     2A1    -0.770620     1B2    -0.562109  

	Beta Virtual:                                                         

	   3A1     0.123742     1B1     0.159219     4A1     0.221173  
	   2B2     0.278489     5A1     0.668669     3B2     0.674173  
	   6A1     0.823270     2B1     0.823888     4B2     0.919821  
	   7A1     1.051669     1A2     1.234962     8A1     1.382059  
	   3B1     1.420870     5B2     1.611145     9A1     1.788094  
	   4B1     1.942827     6B2     2.064359     2A2     2.165522  
	  10A1     2.285809     7B2     2.737787    11A1     2.806602  

	Final Occupation by Irrep:
	         A1    A2    B1    B2 
	DOCC [     2,    0,    0,    1 ]
	SOCC [     1,    0,    1,    0 ]

  Energy converged.

  @UHF Final Energy:   -38.92562230760313

   => Energetics <=

    Nuclear Repulsion Energy =          6.0263676026260731
    One-Electron Energy =             -63.6586093802640605
    Two-Electron Energy =              18.7066194700348554
    DFT Functional Energy =             0.0000000000000000
    Empirical Dispersion Energy =       0.0000000000000000
    Total Energy =                    -38.9256223076031347

  ==> Properties <==

  Nuclear Dipole Moment: (a.u.)
     X:     0.0000      Y:     0.0000      Z:     0.8159

  Electronic Dipole Moment: (a.u.)
     X:     0.0000      Y:     0.0000      Z:    -0.5822

  Dipole Moment: (a.u.)
     X:     0.0000      Y:     0.0000      Z:     0.2338     Total:     0.2338

  Dipole Moment: (Debye)
     X:     0.0000      Y:     0.0000      Z:     0.5942     Total:     0.5942


  Saving occupied orbitals to File 180.

*** tstop() called on lawn-143-215-103-161.lawn.gatech.edu at Fri Apr 27 14:11:58 2012
Module time:
	user time   =       0.09 seconds =       0.00 minutes
	system time =       0.01 seconds =       0.00 minutes
	total time  =          0 seconds =       0.00 minutes
Total time:
	user time   =       1.12 seconds =       0.02 minutes
	system time =       0.81 seconds =       0.01 minutes
	total time  =          4 seconds =       0.07 minutes

*** tstart() called on lawn-143-215-103-161.lawn.gatech.edu
*** at Fri Apr 27 14:11:58 2012


	**************************************************
	* TRANSQT2: Program to transform integrals from  *
	*           the SO basis to the MO basis.        *
	*                                                *
	*            Daniel, David, & Justin             *
	**************************************************


	Input parameters:
	-----------------
	Wave function   =	CCSD
	Backtransform   =	No
	Print Level     =	1
	Print TEIs      =	No
	Reference wfn   =	UHF
	Derivative      =	First
	Delete TEI File =	Yes
	Memory (Mbytes) =	250.0
	Cache Level     =	2
	Cache Type      =	LRU
	Chkpt Parameters:
	--------------------
	Number of irreps     = 4
	Number of SOs        = 24
	Number of MOs        = 24
	Number of active MOs = 24

	Label	# SOs	# FZDC	# DOCC	# SOCC	# VIRT	# FZVR
	-----	-----	------	------	------	------	------
	 A1	   11	    0	    2	    1	    8	    0
	 A2	   2	    0	    0	    0	    2	    0
	 B1	   4	    0	    0	    1	    3	    0
	 B2	   7	    0	    1	    0	    6	    0

	Nuclear Rep. energy (chkpt) =      6.02636760262607
	SCF energy          (chkpt) =    -38.92562230760313

	Presorting SO-basis two-electron integrals.
	Sorting File: SO Ints (pq,rs) nbuckets = 1
	Frozen-core energy =    0.000000000000000
	Starting AA/AB first half-transformation.
	Sorting AA/AB half-transformed integrals.
	Starting AA second half-transformation.
	Starting AB second half-transformation.
	Starting BB first half-transformation.
	Sorting BB half-transformed integrals.
	Starting BB second half-transformation.
	Two-electron integral transformation complete.

*** tstop() called on lawn-143-215-103-161.lawn.gatech.edu at Fri Apr 27 14:11:58 2012
Module time:
	user time   =       0.03 seconds =       0.00 minutes
	system time =       0.02 seconds =       0.00 minutes
	total time  =          0 seconds =       0.00 minutes
Total time:
	user time   =       1.15 seconds =       0.02 minutes
	system time =       0.83 seconds =       0.01 minutes
	total time  =          4 seconds =       0.07 minutes

*** tstart() called on lawn-143-215-103-161.lawn.gatech.edu
*** at Fri Apr 27 14:11:58 2012


			**************************
			*                        *
			*         CCSORT         *
			*                        *
			**************************


	Input parameters:
	-----------------
	Wave function   =	CCSD
	Reference wfn   =	UHF
	Derivative      =	First
	Memory (Mbytes) =	250.0
	AO Basis        =	NONE
	Make (ab|cd)    =	True
	Make unpacked (ab|cd) =	True
	Cache Level     =	2
	Cache Type      =	LRU
	Local CC        =     No


	Chkpt Parameters:
	--------------------
	Number of irreps     = 4
	Number of MOs        = 24
	Number of active MOs = 24

	Label	# MOs	# FZDC	# DOCC	# SOCC	# VIRT	# FZVR
	-----	-----	------	------	------	------	------
	 A1	   11	    0	    2	    1	    8	    0
	 A2	   2	    0	    0	    0	    2	    0
	 B1	   4	    0	    0	    1	    3	    0
	 B2	   7	    0	    1	    0	    6	    0

	Nuclear Rep. energy (chkpt) =      6.02636760262607
	SCF energy          (chkpt) =    -38.92562230760313

	Size of irrep 0 of <AB|CD> integrals:      0.002 (MW) /      0.018 (MB)
	Size of irrep 1 of <AB|CD> integrals:      0.001 (MW) /      0.009 (MB)
	Size of irrep 2 of <AB|CD> integrals:      0.001 (MW) /      0.010 (MB)
	Size of irrep 3 of <AB|CD> integrals:      0.003 (MW) /      0.023 (MB)
	Total:                                     0.008 (MW) /      0.061 (MB)

	Size of irrep 0 of <ab|cd> integrals:      0.003 (MW) /      0.027 (MB)
	Size of irrep 1 of <ab|cd> integrals:      0.002 (MW) /      0.014 (MB)
	Size of irrep 2 of <ab|cd> integrals:      0.002 (MW) /      0.018 (MB)
	Size of irrep 3 of <ab|cd> integrals:      0.004 (MW) /      0.031 (MB)
	Total:                                     0.011 (MW) /      0.090 (MB)

	Size of irrep 0 of <Ab|Cd> integrals:      0.015 (MW) /      0.123 (MB)
	Size of irrep 1 of <Ab|Cd> integrals:      0.006 (MW) /      0.046 (MB)
	Size of irrep 2 of <Ab|Cd> integrals:      0.007 (MW) /      0.055 (MB)
	Size of irrep 3 of <Ab|Cd> integrals:      0.013 (MW) /      0.108 (MB)
	Total:                                     0.041 (MW) /      0.332 (MB)

	Size of irrep 0 of <IA|BC> integrals:      0.004 (MW) /      0.030 (MB)
	Size of irrep 1 of <IA|BC> integrals:      0.001 (MW) /      0.008 (MB)
	Size of irrep 2 of <IA|BC> integrals:      0.001 (MW) /      0.011 (MB)
	Size of irrep 3 of <IA|BC> integrals:      0.003 (MW) /      0.024 (MB)
	Total:                                     0.009 (MW) /      0.073 (MB)

	Size of irrep 0 of <ia|bc> integrals:      0.003 (MW) /      0.026 (MB)
	Size of irrep 1 of <ia|bc> integrals:      0.001 (MW) /      0.005 (MB)
	Size of irrep 2 of <ia|bc> integrals:      0.001 (MW) /      0.008 (MB)
	Size of irrep 3 of <ia|bc> integrals:      0.003 (MW) /      0.021 (MB)
	Total:                                     0.008 (MW) /      0.060 (MB)

	Size of irrep 0 of <Ia|Bc> integrals:      0.005 (MW) /      0.037 (MB)
	Size of irrep 1 of <Ia|Bc> integrals:      0.001 (MW) /      0.010 (MB)
	Size of irrep 2 of <Ia|Bc> integrals:      0.002 (MW) /      0.015 (MB)
	Size of irrep 3 of <Ia|Bc> integrals:      0.003 (MW) /      0.027 (MB)
	Total:                                     0.011 (MW) /      0.089 (MB)

	Size of irrep 0 of <iA|bC> integrals:      0.003 (MW) /      0.022 (MB)
	Size of irrep 1 of <iA|bC> integrals:      0.001 (MW) /      0.004 (MB)
	Size of irrep 2 of <iA|bC> integrals:      0.001 (MW) /      0.005 (MB)
	Size of irrep 3 of <iA|bC> integrals:      0.002 (MW) /      0.019 (MB)
	Total:                                     0.006 (MW) /      0.050 (MB)

	Size of irrep 0 of tIjAb amplitudes:       0.001 (MW) /      0.007 (MB)
	Size of irrep 1 of tIjAb amplitudes:       0.000 (MW) /      0.001 (MB)
	Size of irrep 2 of tIjAb amplitudes:       0.000 (MW) /      0.001 (MB)
	Size of irrep 3 of tIjAb amplitudes:       0.001 (MW) /      0.005 (MB)
	Total:                                     0.002 (MW) /      0.014 (MB)


	Sorting File: A <IJ|KL> nbuckets = 1
	Sorting File: B <AB|CD> nbuckets = 1
	Sorting File: C <IA|JB> nbuckets = 1
	Sorting File: D <IJ|AB> nbuckets = 1
	Sorting File: E <AI|JK> nbuckets = 1
	Sorting File: F <IA|BC> nbuckets = 1
	Sorting File: F <AI|BC> nbuckets = 1
	Sorting File: A <ij|kl> nbuckets = 1
	Sorting File: B <ab|cd> nbuckets = 1
	Sorting File: C <ia|jb> nbuckets = 1
	Sorting File: D <ij|ab> nbuckets = 1
	Sorting File: E <ai|jk> nbuckets = 1
	Sorting File: F <ia|bc> nbuckets = 1
	Sorting File: F <ai|bc> nbuckets = 1
	Sorting File: A <Ij|Kl> nbuckets = 1
	Sorting File: B <Ab|Cd> nbuckets = 1
	Sorting File: C <Ia|Jb> nbuckets = 1
	Sorting File: C <Ai|Bj> nbuckets = 1
	Sorting File: D <Ij|Ab> nbuckets = 1
	Sorting File: E <Ai|Jk> nbuckets = 1
	Sorting File: E <Ij|Ka> nbuckets = 1
	Sorting File: F <Ia|Bc> nbuckets = 1
	Sorting File: F <aI|bC> nbuckets = 1
	Sorting File: F <Ab|Ci> nbuckets = 1
	Sorting File: F <Ai|Bc> nbuckets = 1
	One-electron energy          =    -63.65860938030487
	Two-electron (AA) energy     =      5.36656845668046
	Two-electron (BB) energy     =      1.63220085012695
	Two-electron (AB) energy     =     11.70785016326825
	Two-electron energy          =     18.70661947007567
	Frozen-core energy (transqt) =      0.00000000000000
	Reference energy             =    -38.92562230760313

*** tstop() called on lawn-143-215-103-161.lawn.gatech.edu at Fri Apr 27 14:11:59 2012
Module time:
	user time   =       0.05 seconds =       0.00 minutes
	system time =       0.07 seconds =       0.00 minutes
	total time  =          1 seconds =       0.02 minutes
Total time:
	user time   =       1.20 seconds =       0.02 minutes
	system time =       0.90 seconds =       0.01 minutes
	total time  =          5 seconds =       0.08 minutes

*** tstart() called on lawn-143-215-103-161.lawn.gatech.edu
*** at Fri Apr 27 14:11:59 2012

			**************************
			*                        *
			*        CCENERGY        *
			*                        *
			**************************

	Nuclear Rep. energy (chkpt)   =    6.026367602626073
	SCF energy          (chkpt)   =  -38.925622307603128
	Reference energy    (file100) =  -38.925622307603128

	Input parameters:
	-----------------
	Wave function   =     CCSD
	Reference wfn   =     UHF
	Memory (Mbytes) =     250.0
	Maxiter         =     50
	Convergence     =     1.0e-07
	Restart         =     No
	DIIS            =     Yes
	AO Basis        =     NONE
	ABCD            =     NEW
	Cache Level     =     2
	Cache Type      =     LRU
	Print Level     =     1
	Num. of threads =     1
	# Amps to Print =     10
	Print MP2 Amps? =     No
	Analyze T2 Amps =     No
	Print Pair Ener =     No
	Local CC        =     No
	SCS-MP2         =     False
	SCSN-MP2        =     False
	SCS-CCSD        =     False

	            Solving CC Amplitude Equations
	            ------------------------------
  Iter             Energy              RMS        T1Diag      D1Diag    New D1Diag
  ----     ---------------------    ---------   ----------  ----------  ----------
     0        -0.095301414170303    7.396e-08    0.000000    0.000000    0.000000
     1        -0.110326266661446    3.750e-02    0.004973    0.000000    0.000000
     2        -0.115003039907000    1.454e-02    0.008749    0.000000    0.000000
     3        -0.115436516967892    5.258e-03    0.010744    0.000000    0.000000
     4        -0.115477971527668    1.523e-03    0.011182    0.000000    0.000000
     5        -0.115476668446307    4.177e-04    0.011186    0.000000    0.000000
     6        -0.115481044752883    1.591e-04    0.011165    0.000000    0.000000
     7        -0.115481888493649    5.389e-05    0.011154    0.000000    0.000000
     8        -0.115481538488291    1.259e-05    0.011151    0.000000    0.000000
     9        -0.115481727738467    3.315e-06    0.011151    0.000000    0.000000
    10        -0.115481733338113    1.082e-06    0.011151    0.000000    0.000000
    11        -0.115481717648617    2.652e-07    0.011151    0.000000    0.000000
    12        -0.115481718264611    6.247e-08    0.011151    0.000000    0.000000

	Iterations converged.


	Largest TIA Amplitudes:
	          1   0        -0.0081950333
	          1   1        -0.0076879546
	          4  13        -0.0047876426
	          3  10        -0.0039864702
	          4  16         0.0038781236
	          3  11        -0.0036498135
	          4  14         0.0035662260
	          1   2        -0.0035031497
	          4  17         0.0031809901
	          2   5        -0.0031510282

	Largest Tia Amplitudes:
	          1   0         0.0179346227
	          1   2         0.0118553045
	          2  17         0.0081625009
	          1   4        -0.0063387293
	          1   1         0.0062340918
	          1   6        -0.0056732127
	          2  19         0.0048991218
	          2  15         0.0042069532
	          2  20         0.0035975939
	          1   7        -0.0030338451

	Largest TIJAB Amplitudes:
	  3   2  10   2        -0.0301716835
	  3   2  11   4        -0.0241570346
	  4   3  15  10        -0.0207347739
	  4   3  13  10        -0.0207163482
	  3   2  10   1         0.0205846063
	  4   2  13   1         0.0194747931
	  4   2  15   1         0.0188210957
	  4   3   8   1         0.0187542429
	  4   3   8   2         0.0172775906
	  4   2  14   2        -0.0172100957

	Largest Tijab Amplitudes:
	  2   1  11   9        -0.0102039989
	  2   1  16   0         0.0071516692
	  2   1  16   1        -0.0068973454
	  2   1  15   1        -0.0068924518
	  2   1  17   0        -0.0065638298
	  2   1  17   4         0.0062498671
	  2   1  15   4         0.0061785401
	  2   1  15   0        -0.0059837210
	  2   1  16   3        -0.0052843300
	  2   1  12   9        -0.0044496917

	Largest TIjAb Amplitudes:
	  4   2  15  17        -0.0343143223
	  4   2   1   2        -0.0300465076
	  4   2  13  15        -0.0284234210
	  3   1   0  11        -0.0273882399
	  4   2   2   2        -0.0269306227
	  4   2  13  17        -0.0267190165
	  2   1   4   0        -0.0267084609
	  2   1  11  11         0.0259802623
	  3   2  10  17        -0.0256270515
	  3   1  11   0        -0.0254670327

	SCF energy       (chkpt)              =  -38.925622307603128
	Reference energy (file100)            =  -38.925622307603128

	Opposite-spin MP2 correlation energy  =    0.000000000000000
	Same-spin MP2 correlation energy      =    0.000000000000000
	MP2 correlation energy                =   -0.095301414170303
      * MP2 total energy                      =  -39.020923721773428

	Opposite-spin CCSD correlation energy =    0.000000000000000
	Same-spin CCSD correlation energy     =    0.000000000000000
	CCSD correlation energy               =   -0.115481718264611
      * CCSD total energy                     =  -39.041104025867739


*** tstop() called on lawn-143-215-103-161.lawn.gatech.edu at Fri Apr 27 14:12:02 2012
Module time:
	user time   =       0.41 seconds =       0.01 minutes
	system time =       0.44 seconds =       0.01 minutes
	total time  =          3 seconds =       0.05 minutes
Total time:
	user time   =       1.62 seconds =       0.03 minutes
	system time =       1.35 seconds =       0.02 minutes
	total time  =          8 seconds =       0.13 minutes

*** tstart() called on lawn-143-215-103-161.lawn.gatech.edu
*** at Fri Apr 27 14:12:02 2012


			**************************
			*                        *
			*         CCHBAR         *
			*                        *
			**************************


*** tstop() called on lawn-143-215-103-161.lawn.gatech.edu at Fri Apr 27 14:12:02 2012
Module time:
	user time   =       0.04 seconds =       0.00 minutes
	system time =       0.06 seconds =       0.00 minutes
	total time  =          0 seconds =       0.00 minutes
Total time:
	user time   =       1.67 seconds =       0.03 minutes
	system time =       1.41 seconds =       0.02 minutes
	total time  =          8 seconds =       0.13 minutes

*** tstart() called on lawn-143-215-103-161.lawn.gatech.edu
*** at Fri Apr 27 14:12:02 2012


			**************************
			*        CCLAMBDA        *
			**************************


	Nuclear Rep. energy (chkpt)   =    6.026367602626073
	Reference           (chkpt)   = 2
	SCF energy          (chkpt)   =  -38.925622307603128
	Reference energy    (CC_INFO) =  -38.925622307603128
	CCSD energy         (CC_INFO) =   -0.115481718264611
	Total CCSD energy   (CC_INFO) =  -39.041104025867739

	Input parameters:
	-----------------
	Maxiter       =      50
	Convergence   = 1.0e-07
	Restart       =     No
	Cache Level   =     2
	Model III     =     No
	DIIS          =     Yes
	AO Basis      =     No
	ABCD            =     NEW
	Local CC        =     No
	Paramaters for left-handed eigenvectors:
	    Irr   Root  Ground-State?    EOM energy        R0
	  1   0     0        Yes       0.0000000000   1.0000000000
	Labels for eigenvector 1:
	LIA 0 -1, Lia 0 -1, LIJAB 0 -1, Lijab 0 -1, LIjAb 0 -1, 2LIjAb - LIjbA 0 -1
	Symmetry of left-hand state: B1
	Symmetry of left-hand eigenvector: A1

	          Solving Lambda Equations
	          ------------------------
	Iter     PseudoEnergy or Norm         RMS  
	----     ---------------------     --------
	   0        -0.115448625727411    3.794e-08
	   1        -0.113057217998959    5.538e-03
	   2        -0.112541883523926    1.286e-03
	   3        -0.112490797896575    3.524e-04
	   4        -0.112489317183342    1.223e-04
	   5        -0.112487101876014    4.782e-05
	   6        -0.112486442929667    1.412e-05
	   7        -0.112486444780169    4.367e-06
	   8        -0.112486444308431    1.403e-06
	   9        -0.112486443846715    4.585e-07
	  10        -0.112486444946925    1.284e-07
	  11        -0.112486444920275    3.334e-08

	Largest LIA Amplitudes:
	          1   0        -0.0078834886
	          1   1        -0.0078650786
	          4  13        -0.0056389348
	          4  14         0.0050329019
	          3  11        -0.0041987308
	          4  15        -0.0040403232
	          3  10        -0.0038305780
	          4  16         0.0038217353
	          1   2        -0.0037391102
	          2   4        -0.0037022820

	Largest Lia Amplitudes:
	          1   0         0.0168751599
	          1   2         0.0107366978
	          2  17         0.0074100887
	          1   1         0.0065773332
	          1   4        -0.0061744127
	          1   6        -0.0052593607
	          2  19         0.0045054567
	          2  15         0.0043294972
	          2  20         0.0031867286
	          1   7        -0.0028285883

	Largest LIJAB Amplitudes:
	  3   2  10   2        -0.0296789453
	  3   2  11   4        -0.0235619127
	  3   2  10   1         0.0202932343
	  4   3  13  10        -0.0202045547
	  4   3  15  10        -0.0202002116
	  4   2  13   1         0.0189260443
	  4   2  15   1         0.0182753822
	  4   3   8   1         0.0181862375
	  4   3   8   2         0.0167099529
	  4   2  14   2        -0.0166670300

	Largest Lijab Amplitudes:
	  2   1  11   9        -0.0098277600
	  2   1  16   0         0.0068738689
	  2   1  15   1        -0.0066585940
	  2   1  16   1        -0.0066504174
	  2   1  17   0        -0.0063903744
	  2   1  17   4         0.0061625791
	  2   1  15   4         0.0060625475
	  2   1  15   0        -0.0058139079
	  2   1  16   3        -0.0050995821
	  2   1  12   9        -0.0043012689

	Largest LIjAb Amplitudes:
	  4   2  15  17        -0.0334821523
	  4   2   1   2        -0.0291716808
	  4   2  13  15        -0.0276951560
	  3   1   0  11        -0.0265722321
	  4   2  13  17        -0.0260976792
	  4   2   2   2        -0.0260819606
	  2   1   4   0        -0.0259455029
	  2   1  11  11         0.0251849452
	  3   2  10  17        -0.0250325429
	  3   1  11   0        -0.0247716876

	Iterations converged.

	Overlap <L|e^T> =        0.94967003863

*** tstop() called on lawn-143-215-103-161.lawn.gatech.edu at Fri Apr 27 14:12:02 2012
Module time:
	user time   =       0.14 seconds =       0.00 minutes
	system time =       0.10 seconds =       0.00 minutes
	total time  =          0 seconds =       0.00 minutes
Total time:
	user time   =       1.81 seconds =       0.03 minutes
	system time =       1.51 seconds =       0.03 minutes
	total time  =          8 seconds =       0.13 minutes

*** tstart() called on lawn-143-215-103-161.lawn.gatech.edu
*** at Fri Apr 27 14:12:02 2012


			**************************
			*                        *
			*        CCDENSITY       *
			*                        *
			**************************


	Input parameters:
	-----------------
	Wave function    =   CCSD
	Reference wfn    =   UHF
	Dertype          = 1
	Tolerance        = 1.0e-14
	Cache Level      = 2
	AO Basis         = No
	OPDM Only        = No
	Relax OPDM       = Yes
	Compute Xi       = No
	Use Zeta         = No
	Xi connected     = Yes

	Nuclear Rep. energy (chkpt)   =    6.026367602626073
	SCF energy          (chkpt)   =  -38.925622307603128
	Reference energy    (file100) =  -38.925622307603128
	CCSD energy         (CC_INFO) =   -0.115481718264611
	Total CCSD energy   (CC_INFO) =  -39.041104025867739
	Number of States = 1

	Ground?  State     EOM Energy       R0
	  Yes     0 A1    0.0000000000   1.00000000

	Energies re-computed from CC density:
	-------------------------------------
	One-electron energy        =    0.141359008702657
	IJKL energy                =    0.027746186489638
	IJKA energy                =   -0.000402561024085
	IJAB energy                =   -0.225021478350890
	IBJA energy                =   -0.090293776318373
	CIAB energy                =   -0.001267275038680
	ABCD energy                =    0.032398176913842
	Total two-electron energy  =   -0.256840727328548
	CCSD    correlation energy =   -0.115481718625890
	Total CCSD    energy       =  -39.041104026229021

	Energies re-computed from Fock-adjusted CC density:
	---------------------------------------------------
	One-electron energy        =    0.087701106753595
	IJKL energy                =   -0.338963101418620
	IJKA energy                =    0.010427373117969
	IJAB energy                =   -0.225021478350890
	IBJA energy                =    0.319243479397153
	CIAB energy                =   -0.001267275038680
	ABCD energy                =    0.032398176913842
	Total two-electron energy  =   -0.203182825379225
	   CCSD correlation energy =   -0.115481718625630
	Total    CCSD energy       =  -39.041104026228759

	Energies re-computed from Mulliken density:
	-------------------------------------------
	One-electron energy        =    0.087701106753595
	IjKl energy                =   -0.187416131161820
	IJKL energy                =   -0.109467720292305
	ijkl energy                =   -0.042079249964495
	IjKa+iJkA energy           =    0.015141812646052
	IJKA energy                =   -0.021748367951229
	ijka energy                =    0.017033928423146
	IjAb energy                =   -0.171882620587542
	IJAB energy                =   -0.041412730433804
	ijab energy                =   -0.004562392889327
	IBJA energy                =    0.104439178788191
	ibja energy                =    0.047337828092603
	iBjA+IbJa energy           =    0.160302738076144
	cIaB+CiAb energy           =   -0.001408840574670
	CIAB energy                =    0.000208637678403
	ciab energy                =   -0.000067072142413
	AbCd energy                =    0.028321795931320
	ABCD energy                =    0.003793789650484
	abcd energy                =    0.000282591332039
	Total two-electron energy  =   -0.203182825379226
	CCSD    correlation energy =   -0.115481718625630
	Total CCSD    energy       =  -39.041104026228759

*** tstop() called on lawn-143-215-103-161.lawn.gatech.edu at Fri Apr 27 14:12:03 2012
Module time:
	user time   =       0.09 seconds =       0.00 minutes
	system time =       0.09 seconds =       0.00 minutes
	total time  =          1 seconds =       0.02 minutes
Total time:
	user time   =       1.90 seconds =       0.03 minutes
	system time =       1.60 seconds =       0.03 minutes
	total time  =          9 seconds =       0.15 minutes

*** tstart() called on lawn-143-215-103-161.lawn.gatech.edu
*** at Fri Apr 27 14:12:03 2012

 DERIV: Derivative code.
   by Justin Turney

  Cartesian Displacement SALCs
  By SALC:
  Number of SALCs: 3, nirreps: 1
  Project out translations: False
  Project out rotations: False
	irrep = 0, ncomponent = 1
		0: atom 0, direction z, coef 1.000000
	irrep = 0, ncomponent = 2
		0: atom 1, direction y, coef 0.707107
		1: atom 2, direction y, coef -0.707107
	irrep = 0, ncomponent = 2
		0: atom 1, direction z, coef 0.707107
		1: atom 2, direction z, coef 0.707107

  By Atomic Center:
  Number of atomic centers: 3
   Atomic Center 0:
	x component, size = 0
	y component, size = 0
	z component, size = 1
		0: salc 0, irrep 0, coef 1.000000
   Atomic Center 1:
	x component, size = 0
	y component, size = 1
		0: salc 1, irrep 0, coef 0.707107
	z component, size = 1
		0: salc 2, irrep 0, coef 0.707107
   Atomic Center 2:
	x component, size = 0
	y component, size = 1
		0: salc 1, irrep 0, coef -0.707107
	z component, size = 1
		0: salc 2, irrep 0, coef 0.707107

    Molecular point group: c2v

    Geometry (in Bohr), charge = 0, multiplicity = 3:

       Center              X                  Y                   Z       
    ------------   -----------------  -----------------  -----------------
           C          0.000000000000     0.000000000000    -0.138135337575
           H          0.000000000000    -1.850275828119     0.822376899832
           H          0.000000000000     1.850275828119     0.822376899832

	Presorting MO-basis TPDMs.
	Sorting File: MO TPDM (AA|AA) nbuckets = 1
	Sorting File: MO TPDM (AA|aa) nbuckets = 1
	Sorting File: MO TPDM (aa|aa) nbuckets = 1
	Starting first half-transformation.
	Sorting half-transformed TPDMs.
	First half integral transformation complete.


  -Nuclear Repulsion Energy 1st Derivatives:
     Atom            X                  Y                   Z
    ------   -----------------  -----------------  -----------------
       1        0.000000000000     0.000000000000     1.272137095664
       2        0.000000000000     1.298310306379    -0.636068547832
       3        0.000000000000    -1.298310306379    -0.636068547832


  -One-electron contribution to gradient:
     Atom            X                  Y                   Z
    ------   -----------------  -----------------  -----------------
       1        0.000000000000     0.000000000000    -3.303452769520
       2        0.000000000000    -3.208849206160     1.651726384760
       3        0.000000000000     3.208849206160     1.651726384760


  -Lagrangian contribution to gradient:
     Atom            X                  Y                   Z
    ------   -----------------  -----------------  -----------------
       1        0.000000000000     0.000000000000     0.223289822994
       2        0.000000000000     0.194607566617    -0.111644911497
       3        0.000000000000    -0.194607566617    -0.111644911497


  -Two-electron contribution to gradient:
     Atom            X                  Y                   Z
    ------   -----------------  -----------------  -----------------
       1        0.000000000000     0.000000000000     1.793306327886
       2        0.000000000000     1.714460720276    -0.896653163943
       3        0.000000000000    -1.714460720276    -0.896653163943


  -Total gradient:
     Atom            X                  Y                   Z
    ------   -----------------  -----------------  -----------------
       1        0.000000000000     0.000000000000    -0.014719522976
       2        0.000000000000    -0.001470612888     0.007359761488
       3        0.000000000000     0.001470612888     0.007359761488


*** tstop() called on lawn-143-215-103-161.lawn.gatech.edu at Fri Apr 27 14:12:03 2012
Module time:
	user time   =       0.20 seconds =       0.00 minutes
	system time =       0.03 seconds =       0.00 minutes
	total time  =          0 seconds =       0.00 minutes
Total time:
	user time   =       2.10 seconds =       0.04 minutes
	system time =       1.63 seconds =       0.03 minutes
	total time  =          9 seconds =       0.15 minutes

			----------------------------------
			 OPTKING: for geometry optimizations  
			  - R.A. King,  Bethel University   
			------------------------------------

	Previous internal coordinate definitions found.
	---Fragment 1 Geometry and Gradient---
	 C           0.0000000000        0.0000000000       -0.1381353376
	 H           0.0000000000       -1.8502758281        0.8223768998
	 H           0.0000000000        1.8502758281        0.8223768998
	             0.0000000000        0.0000000000       -0.0147195230
	             0.0000000000       -0.0014706129        0.0073597615
	             0.0000000000        0.0014706129        0.0073597615

	---Fragment 1 Intrafragment Coordinates---
	 - Coordinate -           - BOHR/RAD -       - ANG/DEG -
	 R(1,2)           =         2.084731	       1.103192
	 R(1,3)           =         2.084731	       1.103192
	 B(2,1,3)         =         2.183942	     125.130686

	Current energy   :       -39.0411040259

	Energy change for the previous step:
		Projected    :        -0.0069006021
		Actual       :        -0.0083564529
	Energy ratio indicates good step: Trust radius increased to 8.000e-01.


	Performing BFGS update with previous 1 gradient(s).
	Going to follow RFO solution 1.
	Projected energy change by RFO approximation:        -0.0006826964

	Back-transformation to cartesian coordinates...
	Successfully converged to displaced geometry.

	---Internal Coordinate Step in ANG or DEG, aJ/ANG or AJ/DEG ---
	 ----------------------------------------------------------------------
	 Coordinate             Previous        Force       Change         New 
	 ----------             --------       ------       ------       ------
	 R(1,2)          =      1.103192    -0.038690    -0.009683     1.093510
	 R(1,3)          =      1.103192    -0.038690    -0.009683     1.093510
	 B(2,1,3)        =    125.130686     0.000929     5.602987   130.733673
	 ----------------------------------------------------------------------

  ==> Convergence Check <==

  Measures of convergence in internal coordinates in au.
  Criteria marked as inactive (o), active & met (*), and active & unmet ( ).
  ---------------------------------------------------------------------------------------------
   Step     Total Energy     Delta E     MAX Force     RMS Force      MAX Disp      RMS Disp   
  ---------------------------------------------------------------------------------------------
    Convergence Criteria    1.00e-07 *    1.00e-06 *             o    1.00e-06 *             o
  ---------------------------------------------------------------------------------------------
      2     -39.04110403   -8.36e-03      1.22e-02      8.02e-03 o    9.78e-02      5.84e-02 o  ~
  ---------------------------------------------------------------------------------------------

	Writing optimization data to binary file.
	Structure for next step:
	Cartesian Geometry (au)
	    C     0.0000000000   0.0000000000  -0.0719965685
	    H     0.0000000000  -1.8783780267   0.7893075153
	    H     0.0000000000   1.8783780267   0.7893075153
			--------------------------
			 OPTKING Finished Execution 
			--------------------------

*** tstart() called on lawn-143-215-103-161.lawn.gatech.edu
*** at Fri Apr 27 14:12:03 2012


         ---------------------------------------------------------
                                   SCF
            by Justin Turney, Rob Parrish, and Andy Simmonett
                              UHF Reference
                        1 Threads,    250 MiB Core
         ---------------------------------------------------------

  ==> Geometry <==

    Molecular point group: c2v

    Geometry (in Angstrom), charge = 0, multiplicity = 3:

       Center              X                  Y                   Z       
    ------------   -----------------  -----------------  -----------------
           C          0.000000000000     0.000000000000    -0.065548012586
           H          0.000000000000    -0.993994840863     0.390234478211
           H          0.000000000000     0.993994840863     0.390234478211

  Running in c2v symmetry.

  Nuclear repulsion =    6.073292984159298

  Charge       = 0
  Multiplicity = 3
  Electrons    = 8
  Nalpha       = 5
  Nbeta        = 3

  ==> Algorithm <==

  SCF Algorithm Type is PK.
  DIIS enabled.
  MOM disabled.
  Fractional occupation disabled.
  Guess Type is CORE.
  Energy threshold   = 1.00e-10
  Density threshold  = 1.00e-10
  Integral threshold = 0.00e+00

  ==> Primary Basis <==

  Basis Set: CC-PVDZ
    Number of shells: 12
    Number of basis function: 24
    Number of Cartesian functions: 25
    Spherical Harmonics?: true
    Max angular momentum: 2

  ==> Pre-Iterations <==

  Minimum eigenvalue in the overlap matrix is 3.2410622555E-02.
  Using Symmetric Orthogonalization.
  SCF Guess: Core (One-Electron) Hamiltonian.

  Initial UHF energy:   -28.43774196859342

   -------------------------------------------------------
    Irrep   Nso     Nmo     Nalpha   Nbeta   Ndocc  Nsocc
   -------------------------------------------------------
     A1        11      11       3       2       2       1
     A2         2       2       0       0       0       0
     B1         4       4       1       0       0       1
     B2         7       7       1       1       1       0
   -------------------------------------------------------
    Total      24      24       5       3       3       2
   -------------------------------------------------------

  ==> Integral Setup <==

 MINTS: Wrapper to libmints.
   by Justin Turney

   Calculation information:
      Number of atoms:                   3
      Number of AO shells:              12
      Number of SO shells:               9
      Number of primitives:             32
      Number of atomic orbitals:        25
      Number of basis functions:        24

      Number of irreps:                  4
      Number of functions per irrep: [  11    2    4    7 ]

      Overlap, kinetic, potential, dipole, and quadrupole integrals
        stored in file 35.

      Computing two-electron integrals...done
      Computed 11412 non-zero two-electron integrals.
        Stored in file 33.

  ==> Iterations <==

                        Total Energy        Delta E     Density RMS

   @UHF iter   1:   -35.20272461194024   -6.76498e+00   0.00000e+00 
   @UHF iter   2:   -38.13845974501612   -2.93574e+00   2.51161e-01 DIIS
   @UHF iter   3:   -38.90916425920456   -7.70705e-01   1.48435e-01 DIIS
   @UHF iter   4:   -38.92428303297928   -1.51188e-02   1.51223e-02 DIIS
   @UHF iter   5:   -38.92626840036237   -1.98537e-03   4.96489e-03 DIIS
   @UHF iter   6:   -38.92658677135722   -3.18371e-04   1.65853e-03 DIIS
   @UHF iter   7:   -38.92661359526572   -2.68239e-05   3.24465e-04 DIIS
   @UHF iter   8:   -38.92661547459564   -1.87933e-06   3.72540e-05 DIIS
   @UHF iter   9:   -38.92661562373060   -1.49135e-07   1.41505e-05 DIIS
   @UHF iter  10:   -38.92661564345745   -1.97269e-08   7.66256e-06 DIIS
   @UHF iter  11:   -38.92661564423979   -7.82336e-10   1.28023e-06 DIIS
   @UHF iter  12:   -38.92661564425835   -1.85594e-11   2.68847e-07 DIIS
   @UHF iter  13:   -38.92661564425930   -9.52127e-13   6.27499e-08 DIIS
   @UHF iter  14:   -38.92661564425931   -1.42109e-14   1.13466e-08 DIIS
   @UHF iter  15:   -38.92661564425933   -1.42109e-14   1.47434e-09 DIIS
[...]

	Largest TIJAB Amplitudes:
	  3   2  10   2        -0.0339596456
	  3   2  11   4        -0.0249883192
	  4   3   8   1         0.0220070925
	  4   3  13  10        -0.0205033744
	  4   3  15  10        -0.0205028932
	  4   2  15   1         0.0175595588
	  4   2  13   1         0.0173325815
	  4   2  14   2        -0.0162092863
	  3   1  10   3         0.0152408769
	  3   2  10   1         0.0148749170

	Largest Tijab Amplitudes:
	  2   1  11   9        -0.0101389219
	  2   1  15   1        -0.0070495537
	  2   1  16   0         0.0069277834
	  2   1  17   0        -0.0064810117
	  2   1  16   1        -0.0063202285
	  2   1  17   4         0.0061999688
	  2   1  15   4         0.0061423204
	  2   1  15   0        -0.0052970319
	  2   1  16   3        -0.0047692459
	  2   1  12   9        -0.0044168925

	Largest TIjAb Amplitudes:
	  4   2   1   2        -0.0360685681
	  4   2  15  17        -0.0346116268
	  3   1   0  11        -0.0285197523
	  3   1   1  11        -0.0283469148
	  2   1   4   0        -0.0271350747
	  4   2  13  15        -0.0263895361
	  2   1  11  11         0.0263650195
	  3   1  11   0        -0.0258987633
	  2   2   2  17        -0.0258007405
	  3   2  10  17        -0.0253431400

	SCF energy       (chkpt)              =  -38.926586957143542
	Reference energy (file100)            =  -38.926586957143556

	Opposite-spin MP2 correlation energy  =    0.000000000000000
	Same-spin MP2 correlation energy      =    0.000000000000000
	MP2 correlation energy                =   -0.095160922818784
      * MP2 total energy                      =  -39.021747879962341

	Opposite-spin CCSD correlation energy =    0.000000000000000
	Same-spin CCSD correlation energy     =    0.000000000000000
	CCSD correlation energy               =   -0.115336192771088
      * CCSD total energy                     =  -39.041923149914645


*** tstop() called on lawn-143-215-103-161.lawn.gatech.edu at Fri Apr 27 14:12:26 2012
Module time:
	user time   =       0.42 seconds =       0.01 minutes
	system time =       0.44 seconds =       0.01 minutes
	total time  =          4 seconds =       0.07 minutes
Total time:
	user time   =       5.92 seconds =       0.10 minutes
	system time =       4.72 seconds =       0.08 minutes
	total time  =         32 seconds =       0.53 minutes

*** tstart() called on lawn-143-215-103-161.lawn.gatech.edu
*** at Fri Apr 27 14:12:26 2012


			**************************
			*                        *
			*         CCHBAR         *
			*                        *
			**************************


*** tstop() called on lawn-143-215-103-161.lawn.gatech.edu at Fri Apr 27 14:12:26 2012
Module time:
	user time   =       0.05 seconds =       0.00 minutes
	system time =       0.05 seconds =       0.00 minutes
	total time  =          0 seconds =       0.00 minutes
Total time:
	user time   =       5.97 seconds =       0.10 minutes
	system time =       4.77 seconds =       0.08 minutes
	total time  =         32 seconds =       0.53 minutes

*** tstart() called on lawn-143-215-103-161.lawn.gatech.edu
*** at Fri Apr 27 14:12:26 2012


			**************************
			*        CCLAMBDA        *
			**************************


	Nuclear Rep. energy (chkpt)   =    6.070064744989555
	Reference           (chkpt)   = 2
	SCF energy          (chkpt)   =  -38.926586957143542
	Reference energy    (CC_INFO) =  -38.926586957143556
	CCSD energy         (CC_INFO) =   -0.115336192771088
	Total CCSD energy   (CC_INFO) =  -39.041923149914645

	Input parameters:
	-----------------
	Maxiter       =      50
	Convergence   = 1.0e-07
	Restart       =     No
	Cache Level   =     2
	Model III     =     No
	DIIS          =     Yes
	AO Basis      =     No
	ABCD            =     NEW
	Local CC        =     No
	Paramaters for left-handed eigenvectors:
	    Irr   Root  Ground-State?    EOM energy        R0
	  1   0     0        Yes       0.0000000000   1.0000000000
	Labels for eigenvector 1:
	LIA 0 -1, Lia 0 -1, LIJAB 0 -1, Lijab 0 -1, LIjAb 0 -1, 2LIjAb - LIjbA 0 -1
	Symmetry of left-hand state: B1
	Symmetry of left-hand eigenvector: A1

	          Solving Lambda Equations
	          ------------------------
	Iter     PseudoEnergy or Norm         RMS  
	----     ---------------------     --------
	   0        -0.115301063279314    3.034e-08
	   1        -0.112925904999251    5.358e-03
	   2        -0.112415488189871    1.249e-03
	   3        -0.112365760814268    3.439e-04
	   4        -0.112363510734159    1.223e-04
	   5        -0.112361279497071    4.740e-05
	   6        -0.112360676541668    1.376e-05
	   7        -0.112360703876226    4.250e-06
	   8        -0.112360718455984    1.330e-06
	   9        -0.112360720833255    4.071e-07
	  10        -0.112360721937497    1.114e-07
	  11        -0.112360721858149    3.034e-08

	Largest LIA Amplitudes:
	          1   1        -0.0090138731
	          1   0        -0.0090004221
	          4  13        -0.0053546959
	          4  15        -0.0046373184
	          4  14         0.0045665570
	          4  16         0.0044366448
	          3  11        -0.0037581315
	          3  10        -0.0034140767
	          2   4        -0.0033768539
	          2   5        -0.0030684915

	Largest Lia Amplitudes:
	          1   0         0.0154603510
	          1   2         0.0115168502
	          1   1         0.0080415332
	          2  17         0.0068116316
	          1   4        -0.0067237770
	          1   6        -0.0050129899
	          2  19         0.0039481255
	          1   7        -0.0036032883
	          2  15         0.0035012087
	          2  20         0.0033081291

	Largest LIJAB Amplitudes:
	  3   2  10   2        -0.0333965849
	  3   2  11   4        -0.0243689738
	  4   3   8   1         0.0213249445
	  4   3  13  10        -0.0200008602
	  4   3  15  10        -0.0199917965
	  4   2  15   1         0.0170288246
	  4   2  13   1         0.0168188067
	  4   2  14   2        -0.0157093197
	  3   1  10   3         0.0151181670
	  3   2  10   1         0.0146602641

	Largest Lijab Amplitudes:
	  2   1  11   9        -0.0097697554
	  2   1  15   1        -0.0068226793
	  2   1  16   0         0.0066594599
	  2   1  17   0        -0.0063052415
	  2   1  17   4         0.0061197122
	  2   1  16   1        -0.0061044444
	  2   1  15   4         0.0060350140
	  2   1  15   0        -0.0051513840
	  2   1  16   3        -0.0046059579
	  2   1  12   9        -0.0042725089

	Largest LIjAb Amplitudes:
	  4   2   1   2        -0.0350093876
	  4   2  15  17        -0.0338009966
	  3   1   0  11        -0.0276689201
	  3   1   1  11        -0.0274481329
	  2   1   4   0        -0.0263521534
	  4   2  13  15        -0.0257300528
	  2   1  11  11         0.0255618467
	  2   2   2  17        -0.0252307321
	  3   1  11   0        -0.0251780953
	  3   2  10  17        -0.0247594891

	Iterations converged.

	Overlap <L|e^T> =        0.94996551119

*** tstop() called on lawn-143-215-103-161.lawn.gatech.edu at Fri Apr 27 14:12:26 2012
Module time:
	user time   =       0.13 seconds =       0.00 minutes
	system time =       0.10 seconds =       0.00 minutes
	total time  =          0 seconds =       0.00 minutes
Total time:
	user time   =       6.10 seconds =       0.10 minutes
	system time =       4.87 seconds =       0.08 minutes
	total time  =         32 seconds =       0.53 minutes

*** tstart() called on lawn-143-215-103-161.lawn.gatech.edu
*** at Fri Apr 27 14:12:26 2012


			**************************
			*                        *
			*        CCDENSITY       *
			*                        *
			**************************


	Input parameters:
	-----------------
	Wave function    =   CCSD
	Reference wfn    =   UHF
	Dertype          = 1
	Tolerance        = 1.0e-14
	Cache Level      = 2
	AO Basis         = No
	OPDM Only        = No
	Relax OPDM       = Yes
	Compute Xi       = No
	Use Zeta         = No
	Xi connected     = Yes

	Nuclear Rep. energy (chkpt)   =    6.070064744989555
	SCF energy          (chkpt)   =  -38.926586957143542
	Reference energy    (file100) =  -38.926586957143556
	CCSD energy         (CC_INFO) =   -0.115336192771088
	Total CCSD energy   (CC_INFO) =  -39.041923149914645
	Number of States = 1

	Ground?  State     EOM Energy       R0
	  Yes     0 A1    0.0000000000   1.00000000

	Energies re-computed from CC density:
	-------------------------------------
	One-electron energy        =    0.141267381689531
	IJKL energy                =    0.027633525349392
	IJKA energy                =   -0.000445214210532
	IJAB energy                =   -0.224768577907892
	IBJA energy                =   -0.089935033651712
	CIAB energy                =   -0.001250751501588
	ABCD energy                =    0.032162477924053
	Total two-electron energy  =   -0.256603573998279
	CCSD    correlation energy =   -0.115336192308749
	Total CCSD    energy       =  -39.041923149452302

	Energies re-computed from Fock-adjusted CC density:
	---------------------------------------------------
	One-electron energy        =    0.089119685531358
	IJKL energy                =   -0.338081807694126
	IJKA energy                =    0.009809868929241
	IJAB energy                =   -0.224768577907892
	IBJA energy                =    0.317672912410364
	CIAB energy                =   -0.001250751501588
	ABCD energy                =    0.032162477924053
	Total two-electron energy  =   -0.204455877839948
	   CCSD correlation energy =   -0.115336192308590
	Total    CCSD energy       =  -39.041923149452145

	Energies re-computed from Mulliken density:
	-------------------------------------------
	One-electron energy        =    0.089119685531358
	IjKl energy                =   -0.186882169973390
	IJKL energy                =   -0.109479762146158
	ijkl energy                =   -0.041719875574578
	IjKa+iJkA energy           =    0.014535574672353
	IJKA energy                =   -0.021799198171292
	ijka energy                =    0.017073492428180
	IjAb energy                =   -0.171438415816481
	IJAB energy                =   -0.041750174775778
	ijab energy                =   -0.004440892080869
	IBJA energy                =    0.104027886719415
	ibja energy                =    0.047016049219373
	iBjA+IbJa energy           =    0.159489881236812
	cIaB+CiAb energy           =   -0.001387430427609
	CIAB energy                =    0.000207614418501
	ciab energy                =   -0.000070935492480
	AbCd energy                =    0.028068771289807
	ABCD energy                =    0.003823724373332
	abcd energy                =    0.000269982260913
	Total two-electron energy  =   -0.204455877839948
	CCSD    correlation energy =   -0.115336192308590
	Total CCSD    energy       =  -39.041923149452145

*** tstop() called on lawn-143-215-103-161.lawn.gatech.edu at Fri Apr 27 14:12:27 2012
Module time:
	user time   =       0.10 seconds =       0.00 minutes
	system time =       0.09 seconds =       0.00 minutes
	total time  =          1 seconds =       0.02 minutes
Total time:
	user time   =       6.20 seconds =       0.10 minutes
	system time =       4.96 seconds =       0.08 minutes
	total time  =         33 seconds =       0.55 minutes

*** tstart() called on lawn-143-215-103-161.lawn.gatech.edu
*** at Fri Apr 27 14:12:27 2012

 DERIV: Derivative code.
   by Justin Turney

  Cartesian Displacement SALCs
  By SALC:
  Number of SALCs: 3, nirreps: 1
  Project out translations: False
  Project out rotations: False
	irrep = 0, ncomponent = 1
		0: atom 0, direction z, coef 1.000000
	irrep = 0, ncomponent = 2
		0: atom 1, direction y, coef 0.707107
		1: atom 2, direction y, coef -0.707107
	irrep = 0, ncomponent = 2
		0: atom 1, direction z, coef 0.707107
		1: atom 2, direction z, coef 0.707107

  By Atomic Center:
  Number of atomic centers: 3
   Atomic Center 0:
	x component, size = 0
	y component, size = 0
	z component, size = 1
		0: salc 0, irrep 0, coef 1.000000
   Atomic Center 1:
	x component, size = 0
	y component, size = 1
		0: salc 1, irrep 0, coef 0.707107
	z component, size = 1
		0: salc 2, irrep 0, coef 0.707107
   Atomic Center 2:
	x component, size = 0
	y component, size = 1
		0: salc 1, irrep 0, coef -0.707107
	z component, size = 1
		0: salc 2, irrep 0, coef 0.707107

    Molecular point group: c2v

    Geometry (in Bohr), charge = 0, multiplicity = 3:

       Center              X                  Y                   Z       
    ------------   -----------------  -----------------  -----------------
           C          0.000000000000     0.000000000000    -0.120303833205
           H          0.000000000000    -1.890155636681     0.716218565981
           H          0.000000000000     1.890155636681     0.716218565981

	Presorting MO-basis TPDMs.
	Sorting File: MO TPDM (AA|AA) nbuckets = 1
	Sorting File: MO TPDM (AA|aa) nbuckets = 1
	Sorting File: MO TPDM (aa|aa) nbuckets = 1
	Starting first half-transformation.
	Sorting half-transformed TPDMs.
	First half integral transformation complete.


  -Nuclear Repulsion Energy 1st Derivatives:
     Atom            X                  Y                   Z
    ------   -----------------  -----------------  -----------------
       1        0.000000000000     0.000000000000     1.136690181880
       2        0.000000000000     1.354173658393    -0.568345090940
       3        0.000000000000    -1.354173658393    -0.568345090940


  -One-electron contribution to gradient:
     Atom            X                  Y                   Z
    ------   -----------------  -----------------  -----------------
       1        0.000000000000     0.000000000000    -2.841088593086
       2        0.000000000000    -3.366402318179     1.420544296543
       3        0.000000000000     3.366402318179     1.420544296543


  -Lagrangian contribution to gradient:
     Atom            X                  Y                   Z
    ------   -----------------  -----------------  -----------------
       1        0.000000000000     0.000000000000     0.187618964958
       2        0.000000000000     0.204590904555    -0.093809482479
       3        0.000000000000    -0.204590904555    -0.093809482479


  -Two-electron contribution to gradient:
     Atom            X                  Y                   Z
    ------   -----------------  -----------------  -----------------
       1        0.000000000000     0.000000000000     1.516779406558
       2        0.000000000000     1.807637721517    -0.758389703279
       3        0.000000000000    -1.807637721517    -0.758389703279


  -Total gradient:
     Atom            X                  Y                   Z
    ------   -----------------  -----------------  -----------------
       1        0.000000000000     0.000000000000    -0.000000039690
       2        0.000000000000    -0.000000033714     0.000000019845
       3        0.000000000000     0.000000033714     0.000000019845


*** tstop() called on lawn-143-215-103-161.lawn.gatech.edu at Fri Apr 27 14:12:27 2012
Module time:
	user time   =       0.19 seconds =       0.00 minutes
	system time =       0.03 seconds =       0.00 minutes
	total time  =          0 seconds =       0.00 minutes
Total time:
	user time   =       6.39 seconds =       0.11 minutes
	system time =       4.99 seconds =       0.08 minutes
	total time  =         33 seconds =       0.55 minutes

			----------------------------------
			 OPTKING: for geometry optimizations  
			  - R.A. King,  Bethel University   
			------------------------------------

	Previous internal coordinate definitions found.
	---Fragment 1 Geometry and Gradient---
	 C           0.0000000000        0.0000000000       -0.1203038332
	 H           0.0000000000       -1.8901556367        0.7162185660
	 H           0.0000000000        1.8901556367        0.7162185660
	             0.0000000000        0.0000000000       -0.0000000397
	             0.0000000000       -0.0000000337        0.0000000198
	             0.0000000000        0.0000000337        0.0000000198

	---Fragment 1 Intrafragment Coordinates---
	 - Coordinate -           - BOHR/RAD -       - ANG/DEG -
	 R(1,2)           =         2.066993	       1.093805
	 R(1,3)           =         2.066993	       1.093805
	 B(2,1,3)         =         2.308280	     132.254704

	Current energy   :       -39.0419231499

	Energy change for the previous step:
		Projected    :        -0.0000000002
		Actual       :        -0.0000000002

	Performing BFGS update with previous 1 gradient(s).
	Denominators (dg)(dq) or (dq)(dq) are very small.
	 Skipping Hessian update for step 5.
	Going to follow RFO solution 1.
	Projected energy change by RFO approximation:        -0.0000000000

	Back-transformation to cartesian coordinates...
	Successfully converged to displaced geometry.

	---Internal Coordinate Step in ANG or DEG, aJ/ANG or AJ/DEG ---
	 ----------------------------------------------------------------------
	 Coordinate             Previous        Force       Change         New 
	 ----------             --------       ------       ------       ------
	 R(1,2)          =      1.093805    -0.000000    -0.000000     1.093805
	 R(1,3)          =      1.093805    -0.000000    -0.000000     1.093805
	 B(2,1,3)        =    132.254704     0.000000     0.000008   132.254711
	 ----------------------------------------------------------------------

  ==> Convergence Check <==

  Measures of convergence in internal coordinates in au.
  Criteria marked as inactive (o), active & met (*), and active & unmet ( ).
  ---------------------------------------------------------------------------------------------
   Step     Total Energy     Delta E     MAX Force     RMS Force      MAX Disp      RMS Disp   
  ---------------------------------------------------------------------------------------------
    Convergence Criteria    1.00e-07 *    1.00e-06 *             o    1.00e-06 *             o
  ---------------------------------------------------------------------------------------------
      6     -39.04192315   -1.59e-10 *    3.89e-08 *    3.22e-08 o    1.32e-07 *    1.19e-07 o  ~
  ---------------------------------------------------------------------------------------------


  **** Optimization is complete! ****

  ==> Optimization Summary <==

  Measures of convergence in internal coordinates in au.
  --------------------------------------------------------------------------------------------------------------- ~
   Step         Total Energy             Delta E       MAX Force       RMS Force        MAX Disp        RMS Disp  ~
  --------------------------------------------------------------------------------------------------------------- ~
      1     -39.032747572936    -39.032747572936      0.04893088      0.02830299      0.28153359      0.16261810  ~
      2     -39.041104025868     -0.008356452932      0.01220505      0.00802227      0.09779056      0.05840259  ~
      3     -39.041889598686     -0.000785572818      0.00252360      0.00152859      0.02404006      0.01388962  ~
      4     -39.041922862574     -0.000033263888      0.00022942      0.00013245      0.00244952      0.00141622  ~
      5     -39.041923149756     -0.000000287182      0.00000537      0.00000337      0.00005742      0.00003321  ~
      6     -39.041923149915     -0.000000000159      0.00000004      0.00000003      0.00000013      0.00000012  ~
  --------------------------------------------------------------------------------------------------------------- ~

	Writing optimization data to binary file.
	Final energy is    -39.0419231499146
	Final (previous) structure:
	Cartesian Geometry (au)
	    C     0.0000000000   0.0000000000  -0.1203038332
	    H     0.0000000000  -1.8901556367   0.7162185660
	    H     0.0000000000   1.8901556367   0.7162185660
	Saving final (previous) structure.
			--------------------------
			 OPTKING Finished Execution 
			--------------------------

	Final optimized geometry and variables (in Angstrom):

	C
	H     1    1.093805
	H     1    1.093805     2  132.254704


*** PSI4 exiting successfully. Buy a developer a beer!
