    -----------------------------------------------------------------------
          PSI4: An Open-Source Ab Initio Electronic Structure Package
                              PSI 4.0.0-beta1 Driver

               Git: Rev 8268e5ba0276eef671d5bc4a44cf66fa46407463

    J. M. Turney, A. C. Simmonett, R. M. Parrish, E. G. Hohenstein,
    F. A. Evangelista, J. T. Fermann, B. J. Mintz, L. A. Burns, J. J. Wilke,
    M. L. Abrams, N. J. Russ, M. L. Leininger, C. L. Janssen, E. T. Seidl,
    W. D. Allen, H. F. Schaefer, R. A. King, E. F. Valeev, C. D. Sherrill,
    and T. D. Crawford, WIREs Comput. Mol. Sci., (2011) (doi: 10.1002/wcms.93)

                         Additional Contributions by
    A. E. DePrince, M. Saitow, U. Bozkaya, A. Yu. Sokolov
    -----------------------------------------------------------------------


    Using LocalCommunicator (Number of processes = 1)

    Memory level set to 256.000 MB

  ==> Input File <==

--------------------------------------------------------------------------
#! SCF STO-3G finite-difference tests

memory 250 mb

molecule h2o {
  symmetry c1
  O
  H 1 1.0
  H 1 1.0 2 104.5
}

set globals { basis sto-3g }
set findif { print 2 }

# In C1, test gradients by 3-point formula ; default is disp_size = .005
gradient('scf')
anal_grad = PsiMod.reference_wavefunction().gradient() 

set findif { points 3 }
gradient('scf', dertype=0)
fd_grad = PsiMod.reference_wavefunction().gradient() 

compare_matrices(fd_grad, anal_grad, 4, "3-point finite-difference vs. analytic gradient to 10^-4 (C1)") #TEST

# Test gradient by 5-point formula
set findif { points 5 }
gradient('scf', dertype=0)
fd_grad = PsiMod.reference_wavefunction().gradient() 

compare_matrices(fd_grad, anal_grad, 8, "5-point finite-difference vs. analytic gradient to 10^-8 (C1)") #TEST

clean()

molecule h2o {
  O
  H 1 1.0
  H 1 1.0 2 104.5
}

set globals { basis sto-3g }

# In C2v, test gradient by 3-point formula ; default is disp_size = .005
set findif { points 3 }
gradient('scf', dertype=0)
fd_grad = PsiMod.reference_wavefunction().gradient() 

compare_matrices(fd_grad, anal_grad, 4, "3-point finite-difference vs. analytic gradient to 10^-4 (C2v)") #TEST

# Test gradient by 5-point formula
set findif { points 5 }
gradient('scf', dertype=0)
fd_grad = PsiMod.reference_wavefunction().gradient() 

compare_matrices(fd_grad, anal_grad, 8, "5-point finite-difference vs. analytic gradient to 10^-8 (C2v)") #TEST
--------------------------------------------------------------------------

  Memory set to 250.000 MiB by Python script.

*** tstart() called on lawn-143-215-103-161.lawn.gatech.edu
*** at Fri Apr 27 13:58:28 2012

	There are an even number of electrons - assuming singlet.
	Specify the multiplicity with the MULTP option in the
	input if this is incorrect


         ---------------------------------------------------------
                                   SCF
            by Justin Turney, Rob Parrish, and Andy Simmonett
                              RHF Reference
                        1 Threads,    250 MiB Core
         ---------------------------------------------------------

  ==> Geometry <==

    Molecular point group: c1

    Geometry (in Angstrom), charge = 0, multiplicity = 1:

       Center              X                  Y                   Z       
    ------------   -----------------  -----------------  -----------------
           O          0.000000000000     0.000000000000    -0.068516219310
           H          0.000000000000    -0.790689573744     0.543701060724
           H          0.000000000000     0.790689573744     0.543701060724

  Running in c1 symmetry.

  Nuclear repulsion =    8.801465529972067

  Charge       = 0
  Multiplicity = 1
  Electrons    = 10
  Nalpha       = 5
  Nbeta        = 5

  ==> Algorithm <==

  SCF Algorithm Type is PK.
  DIIS enabled.
  MOM disabled.
  Fractional occupation disabled.
  Guess Type is CORE.
  Energy threshold   = 1.00e-08
  Density threshold  = 1.00e-08
  Integral threshold = 0.00e+00

  ==> Primary Basis <==

  Basis Set: STO-3G
    Number of shells: 5
    Number of basis function: 7
    Number of Cartesian functions: 7
    Spherical Harmonics?: true
    Max angular momentum: 1

  ==> Pre-Iterations <==

  Minimum eigenvalue in the overlap matrix is 3.7028400642E-01.
  Using Symmetric Orthogonalization.
  SCF Guess: Core (One-Electron) Hamiltonian.

  Initial RHF energy:   -54.63426083487266

   -------------------------------------------------------
    Irrep   Nso     Nmo     Nalpha   Nbeta   Ndocc  Nsocc
   -------------------------------------------------------
     A          7       7       5       5       5       0
   -------------------------------------------------------
    Total       7       7       5       5       5       0
   -------------------------------------------------------

  ==> Integral Setup <==

 MINTS: Wrapper to libmints.
   by Justin Turney

   Calculation information:
      Number of atoms:                   3
      Number of AO shells:               5
      Number of SO shells:               5
      Number of primitives:             15
      Number of atomic orbitals:         7
      Number of basis functions:         7

      Number of irreps:                  1
      Number of functions per irrep: [   7 ]

      Overlap, kinetic, potential, dipole, and quadrupole integrals
        stored in file 35.

      Computing two-electron integrals...done
      Computed 228 non-zero two-electron integrals.
        Stored in file 33.

  ==> Iterations <==

                        Total Energy        Delta E     Density RMS

   @RHF iter   1:   -73.25301168566612   -1.86188e+01   0.00000e+00 
   @RHF iter   2:   -74.93149650876843   -1.67848e+00   2.60800e-01 DIIS
   @RHF iter   3:   -74.96324208529279   -3.17456e-02   3.36189e-02 DIIS
   @RHF iter   4:   -74.96459578982669   -1.35370e-03   9.22393e-03 DIIS
   @RHF iter   5:   -74.96465753478952   -6.17450e-05   1.74105e-03 DIIS
   @RHF iter   6:   -74.96466250496027   -4.97017e-06   5.74971e-04 DIIS
   @RHF iter   7:   -74.96466253888521   -3.39249e-08   4.82594e-05 DIIS
   @RHF iter   8:   -74.96466253888518    2.84217e-14   2.11189e-08 DIIS

  ==> Post-Iterations <==

	Orbital Energies (a.u.)
	-----------------------

	Doubly Occupied:                                                      

	   1A    -20.247270     2A     -1.247775     3A     -0.595851  
	   4A     -0.447884     5A     -0.388956  

	Virtual:                                                              

	   6A      0.564152     7A      0.693007  

	Final Occupation by Irrep:
	          A 
	DOCC [     5 ]

  Energy converged.

  @RHF Final Energy:   -74.96466253888518

   => Energetics <=

    Nuclear Repulsion Energy =          8.8014655299720665
    One-Electron Energy =            -121.6767825089552417
    Two-Electron Energy =              37.9106544400979857
    DFT Functional Energy =             0.0000000000000000
    Empirical Dispersion Energy =       0.0000000000000000
    Total Energy =                    -74.9646625388851930

  ==> Properties <==

  Nuclear Dipole Moment: (a.u.)
     X:     0.0000      Y:     0.0000      Z:     1.0191

  Electronic Dipole Moment: (a.u.)
     X:     0.0000      Y:    -0.0000      Z:    -0.3624

  Dipole Moment: (a.u.)
     X:     0.0000      Y:    -0.0000      Z:     0.6566     Total:     0.6566

  Dipole Moment: (Debye)
     X:     0.0000      Y:    -0.0000      Z:     1.6690     Total:     1.6690


  Saving occupied orbitals to File 180.

*** tstop() called on lawn-143-215-103-161.lawn.gatech.edu at Fri Apr 27 13:58:28 2012
Module time:
	user time   =       0.03 seconds =       0.00 minutes
	system time =       0.01 seconds =       0.00 minutes
	total time  =          0 seconds =       0.00 minutes
Total time:
	user time   =       0.03 seconds =       0.00 minutes
	system time =       0.01 seconds =       0.00 minutes
	total time  =          0 seconds =       0.00 minutes

*** tstart() called on lawn-143-215-103-161.lawn.gatech.edu
*** at Fri Apr 27 13:58:28 2012

 DERIV: Derivative code.
   by Justin Turney

  Cartesian Displacement SALCs
  By SALC:
  Number of SALCs: 9, nirreps: 1
  Project out translations: False
  Project out rotations: False
	irrep = 0, ncomponent = 1
		0: atom 0, direction x, coef 1.000000
	irrep = 0, ncomponent = 1
		0: atom 0, direction y, coef 1.000000
	irrep = 0, ncomponent = 1
		0: atom 0, direction z, coef 1.000000
	irrep = 0, ncomponent = 1
		0: atom 1, direction x, coef 1.000000
	irrep = 0, ncomponent = 1
		0: atom 1, direction y, coef 1.000000
	irrep = 0, ncomponent = 1
		0: atom 1, direction z, coef 1.000000
	irrep = 0, ncomponent = 1
		0: atom 2, direction x, coef 1.000000
	irrep = 0, ncomponent = 1
		0: atom 2, direction y, coef 1.000000
	irrep = 0, ncomponent = 1
		0: atom 2, direction z, coef 1.000000

  By Atomic Center:
  Number of atomic centers: 3
   Atomic Center 0:
	x component, size = 1
		0: salc 0, irrep 0, coef 1.000000
	y component, size = 1
		0: salc 1, irrep 0, coef 1.000000
	z component, size = 1
		0: salc 2, irrep 0, coef 1.000000
   Atomic Center 1:
	x component, size = 1
		0: salc 3, irrep 0, coef 1.000000
	y component, size = 1
		0: salc 4, irrep 0, coef 1.000000
	z component, size = 1
		0: salc 5, irrep 0, coef 1.000000
   Atomic Center 2:
	x component, size = 1
		0: salc 6, irrep 0, coef 1.000000
	y component, size = 1
		0: salc 7, irrep 0, coef 1.000000
	z component, size = 1
		0: salc 8, irrep 0, coef 1.000000

    Molecular point group: c1

    Geometry (in Bohr), charge = 0, multiplicity = 1:

       Center              X                  Y                   Z       
    ------------   -----------------  -----------------  -----------------
           O          0.000000000000     0.000000000000    -0.129476890157
           H          0.000000000000    -1.494186750504     1.027446102928
           H          0.000000000000     1.494186750504     1.027446102928


  -Nuclear Repulsion Energy 1st Derivatives:
     Atom            X                  Y                   Z
    ------   -----------------  -----------------  -----------------
       1        0.000000000000     0.000000000000     2.743012762845
       2        0.000000000000     1.883302402599    -1.371506381423
       3        0.000000000000    -1.883302402599    -1.371506381423


  -One-electron contribution to gradient:
     Atom            X                  Y                   Z
    ------   -----------------  -----------------  -----------------
       1       -0.000000000000     0.000000000000    -5.962874716571
       2       -0.000000000000    -3.908820930462     2.981437358286
       3        0.000000000000     3.908820930462     2.981437358286


  -Lagrangian contribution to gradient:
     Atom            X                  Y                   Z
    ------   -----------------  -----------------  -----------------
       1       -0.000000000000    -0.000000000000     0.303451758239
       2        0.000000000000     0.158668005662    -0.151725879120
       3        0.000000000000    -0.158668005662    -0.151725879120


  -Two-electron contribution to gradient:
     Atom            X                  Y                   Z
    ------   -----------------  -----------------  -----------------
       1        0.000000000000    -0.000000000000     2.918158340634
       2        0.000000000000     1.847470537240    -1.459079170317
       3       -0.000000000000    -1.847470537240    -1.459079170317


  -Total gradient:
     Atom            X                  Y                   Z
    ------   -----------------  -----------------  -----------------
       1       -0.000000000000     0.000000000000     0.001748145146
       2        0.000000000000    -0.019379984961    -0.000874072573
       3        0.000000000000     0.019379984961    -0.000874072573


*** tstop() called on lawn-143-215-103-161.lawn.gatech.edu at Fri Apr 27 13:58:28 2012
Module time:
	user time   =       0.04 seconds =       0.00 minutes
	system time =       0.00 seconds =       0.00 minutes
	total time  =          0 seconds =       0.00 minutes
Total time:
	user time   =       0.07 seconds =       0.00 minutes
	system time =       0.01 seconds =       0.00 minutes
	total time  =          0 seconds =       0.00 minutes

-------------------------------------------------------------

  Using finite-differences of energies to determine gradients (fd_geoms_1_0).
	Generating geometries for use with 3-point formula.
	Displacement size will be 5.00e-03.
	Number of atoms is 3.
	Number of symmetric SALC's is 3.
	Number of displacements (including reference) is 7.
	irrep = 0, ncomponent = 5
		0: atom 0, direction y, coef 0.270243
		1: atom 1, direction y, coef -0.538299
		2: atom 1, direction z, coef 0.416796
		3: atom 2, direction y, coef -0.538299
		4: atom 2, direction z, coef -0.416796
	irrep = 0, ncomponent = 3
		0: atom 0, direction z, coef 0.334537
		1: atom 1, direction z, coef -0.666365
		2: atom 2, direction z, coef -0.666365
	irrep = 0, ncomponent = 2
		0: atom 1, direction y, coef 0.707107
		1: atom 2, direction y, coef -0.707107

-------------------------------------------------------------

  //>>>>>>>>>>>>>>>>>>>>>>>>>>>>>>>>>>>//
  //    Loading displacement 1 of 7    //
  //<<<<<<<<<<<<<<<<<<<<<<<<<<<<<<<<<<<//

*** tstart() called on lawn-143-215-103-161.lawn.gatech.edu
*** at Fri Apr 27 13:58:28 2012

	There are an even number of electrons - assuming singlet.
	Specify the multiplicity with the MULTP option in the
	input if this is incorrect


         ---------------------------------------------------------
                                   SCF
            by Justin Turney, Rob Parrish, and Andy Simmonett
                              RHF Reference
                        1 Threads,    250 MiB Core
         ---------------------------------------------------------

  ==> Geometry <==

    Molecular point group: c1

    Geometry (in Angstrom), charge = 0, multiplicity = 1:

       Center              X                  Y                   Z       
    ------------   -----------------  -----------------  -----------------
           O          0.054279931494     0.041811401678     0.000000000000
           H          0.054279931494    -0.956252935397     0.000000000000
           H         -0.915741834279     0.292675648982     0.000000000000

  Running in c1 symmetry.

  Nuclear repulsion =    8.801496880086471

  Charge       = 0
  Multiplicity = 1
  Electrons    = 10
  Nalpha       = 5
  Nbeta        = 5

  ==> Algorithm <==

  SCF Algorithm Type is PK.
  DIIS enabled.
  MOM disabled.
  Fractional occupation disabled.
  Guess Type is CORE.
  Energy threshold   = 1.00e-08
  Density threshold  = 1.00e-08
  Integral threshold = 0.00e+00

  ==> Primary Basis <==

  Basis Set: STO-3G
    Number of shells: 5
    Number of basis function: 7
    Number of Cartesian functions: 7
    Spherical Harmonics?: true
    Max angular momentum: 1

  ==> Pre-Iterations <==

  Minimum eigenvalue in the overlap matrix is 3.7025904267E-01.
  Using Symmetric Orthogonalization.
  SCF Guess: Core (One-Electron) Hamiltonian.

  Initial RHF energy:   -54.63424645276739

   -------------------------------------------------------
    Irrep   Nso     Nmo     Nalpha   Nbeta   Ndocc  Nsocc
   -------------------------------------------------------
     A          7       7       5       5       5       0
   -------------------------------------------------------
    Total       7       7       5       5       5       0
   -------------------------------------------------------

  ==> Integral Setup <==

 MINTS: Wrapper to libmints.
   by Justin Turney

   Calculation information:
      Number of atoms:                   3
      Number of AO shells:               5
      Number of SO shells:               5
      Number of primitives:             15
      Number of atomic orbitals:         7
      Number of basis functions:         7

      Number of irreps:                  1
      Number of functions per irrep: [   7 ]

      Overlap, kinetic, potential, dipole, and quadrupole integrals
        stored in file 35.

      Computing two-electron integrals...done
      Computed 206 non-zero two-electron integrals.
        Stored in file 33.

  ==> Iterations <==

                        Total Energy        Delta E     Density RMS

   @RHF iter   1:   -73.25300867583665   -1.86188e+01   0.00000e+00 
   @RHF iter   2:   -74.93148543037073   -1.67848e+00   2.60802e-01 DIIS
   @RHF iter   3:   -74.96323332810216   -3.17479e-02   3.36198e-02 DIIS
   @RHF iter   4:   -74.96458713345527   -1.35381e-03   9.22402e-03 DIIS
   @RHF iter   5:   -74.96464888510666   -6.17517e-05   1.74115e-03 DIIS
   @RHF iter   6:   -74.96465385583456   -4.97073e-06   5.75000e-04 DIIS
   @RHF iter   7:   -74.96465388976698   -3.39324e-08   4.82636e-05 DIIS
   @RHF iter   8:   -74.96465388976726   -2.84217e-13   1.18607e-07 DIIS
   @RHF iter   9:   -74.96465388976728   -1.42109e-14   1.39437e-08 DIIS

  ==> Post-Iterations <==

	Orbital Energies (a.u.)
	-----------------------

	Doubly Occupied:                                                      

	   1A    -20.247271     2A     -1.247778     3A     -0.595851  
	   4A     -0.447883     5A     -0.388957  

	Virtual:                                                              

	   6A      0.564125     7A      0.693040  

	Final Occupation by Irrep:
	          A 
	DOCC [     5 ]

  Energy converged.

  @RHF Final Energy:   -74.96465388976728

   => Energetics <=

    Nuclear Repulsion Energy =          8.8014968800864715
    One-Electron Energy =            -121.6768201907691349
    Two-Electron Energy =              37.9106694209153829
    DFT Functional Energy =             0.0000000000000000
    Empirical Dispersion Energy =       0.0000000000000000
    Total Energy =                    -74.9646538897672770

  ==> Properties <==

  Nuclear Dipole Moment: (a.u.)
     X:    -0.8073      Y:    -0.6219      Z:     0.0000

  Electronic Dipole Moment: (a.u.)
     X:     0.2887      Y:     0.2192      Z:     0.0000

  Dipole Moment: (a.u.)
     X:    -0.5187      Y:    -0.4027      Z:     0.0000     Total:     0.6566

  Dipole Moment: (Debye)
     X:    -1.3183      Y:    -1.0235      Z:     0.0000     Total:     1.6690


  Saving occupied orbitals to File 180.

*** tstop() called on lawn-143-215-103-161.lawn.gatech.edu at Fri Apr 27 13:58:28 2012
Module time:
	user time   =       0.03 seconds =       0.00 minutes
	system time =       0.01 seconds =       0.00 minutes
	total time  =          0 seconds =       0.00 minutes
Total time:
	user time   =       0.10 seconds =       0.00 minutes
	system time =       0.02 seconds =       0.00 minutes
	total time  =          0 seconds =       0.00 minutes

  //>>>>>>>>>>>>>>>>>>>>>>>>>>>>>>>>>>>//
  //    Loading displacement 2 of 7    //
  //<<<<<<<<<<<<<<<<<<<<<<<<<<<<<<<<<<<//

*** tstart() called on lawn-143-215-103-161.lawn.gatech.edu
*** at Fri Apr 27 13:58:28 2012

	There are an even number of electrons - assuming singlet.
	Specify the multiplicity with the MULTP option in the
	input if this is incorrect


         ---------------------------------------------------------
                                   SCF
            by Justin Turney, Rob Parrish, and Andy Simmonett
                              RHF Reference
                        1 Threads,    250 MiB Core
         ---------------------------------------------------------

  ==> Geometry <==

    Molecular point group: c1

    Geometry (in Angstrom), charge = 0, multiplicity = 1:

       Center              X                  Y                   Z       
    ------------   -----------------  -----------------  -----------------
           O          0.054070201511     0.042082271586     0.000000000000
           H          0.054070201511    -0.959853403320     0.000000000000
           H         -0.912203537265     0.291977214897     0.000000000000

  Running in c1 symmetry.

  Nuclear repulsion =    8.801496880086470

  Charge       = 0
  Multiplicity = 1
  Electrons    = 10
  Nalpha       = 5
  Nbeta        = 5

  ==> Algorithm <==

  SCF Algorithm Type is PK.
  DIIS enabled.
  MOM disabled.
  Fractional occupation disabled.
  Guess Type is CORE.
  Energy threshold   = 1.00e-08
  Density threshold  = 1.00e-08
  Integral threshold = 0.00e+00

  ==> Primary Basis <==

  Basis Set: STO-3G
    Number of shells: 5
    Number of basis function: 7
    Number of Cartesian functions: 7
    Spherical Harmonics?: true
    Max angular momentum: 1

  ==> Pre-Iterations <==

  Minimum eigenvalue in the overlap matrix is 3.7025904267E-01.
  Using Symmetric Orthogonalization.
  SCF Guess: Core (One-Electron) Hamiltonian.

  Initial RHF energy:   -54.63424645276744

   -------------------------------------------------------
    Irrep   Nso     Nmo     Nalpha   Nbeta   Ndocc  Nsocc
   -------------------------------------------------------
     A          7       7       5       5       5       0
   -------------------------------------------------------
    Total       7       7       5       5       5       0
   -------------------------------------------------------

  ==> Integral Setup <==

 MINTS: Wrapper to libmints.
   by Justin Turney

   Calculation information:
      Number of atoms:                   3
      Number of AO shells:               5
      Number of SO shells:               5
      Number of primitives:             15
      Number of atomic orbitals:         7
      Number of basis functions:         7

      Number of irreps:                  1
      Number of functions per irrep: [   7 ]

      Overlap, kinetic, potential, dipole, and quadrupole integrals
        stored in file 35.

      Computing two-electron integrals...done
      Computed 206 non-zero two-electron integrals.
        Stored in file 33.

  ==> Iterations <==

                        Total Energy        Delta E     Density RMS

   @RHF iter   1:   -73.25300867583672   -1.86188e+01   0.00000e+00 
   @RHF iter   2:   -74.93148543037078   -1.67848e+00   2.60802e-01 DIIS
   @RHF iter   3:   -74.96323332810216   -3.17479e-02   3.36198e-02 DIIS
   @RHF iter   4:   -74.96458713345540   -1.35381e-03   9.22402e-03 DIIS
   @RHF iter   5:   -74.96464888510674   -6.17517e-05   1.74115e-03 DIIS
   @RHF iter   6:   -74.96465385583467   -4.97073e-06   5.75000e-04 DIIS
   @RHF iter   7:   -74.96465388976702   -3.39324e-08   4.82636e-05 DIIS
   @RHF iter   8:   -74.96465388976732   -2.98428e-13   1.18607e-07 DIIS
   @RHF iter   9:   -74.96465388976732    0.00000e+00   1.39437e-08 DIIS

  ==> Post-Iterations <==

	Orbital Energies (a.u.)
	-----------------------

	Doubly Occupied:                                                      

	   1A    -20.247271     2A     -1.247778     3A     -0.595851  
	   4A     -0.447883     5A     -0.388957  

	Virtual:                                                              

	   6A      0.564125     7A      0.693040  

	Final Occupation by Irrep:
	          A 
	DOCC [     5 ]

  Energy converged.

  @RHF Final Energy:   -74.96465388976732

   => Energetics <=

    Nuclear Repulsion Energy =          8.8014968800864697
    One-Electron Energy =            -121.6768201907692486
    Two-Electron Energy =              37.9106694209154398
    DFT Functional Energy =             0.0000000000000000
    Empirical Dispersion Energy =       0.0000000000000000
    Total Energy =                    -74.9646538897673338

  ==> Properties <==

  Nuclear Dipole Moment: (a.u.)
     X:    -0.8042      Y:    -0.6259      Z:     0.0000

  Electronic Dipole Moment: (a.u.)
     X:     0.2845      Y:     0.2246      Z:    -0.0000

  Dipole Moment: (a.u.)
     X:    -0.5197      Y:    -0.4013      Z:    -0.0000     Total:     0.6566

  Dipole Moment: (Debye)
     X:    -1.3210      Y:    -1.0200      Z:    -0.0000     Total:     1.6690


  Saving occupied orbitals to File 180.

*** tstop() called on lawn-143-215-103-161.lawn.gatech.edu at Fri Apr 27 13:58:28 2012
Module time:
	user time   =       0.04 seconds =       0.00 minutes
	system time =       0.01 seconds =       0.00 minutes
	total time  =          0 seconds =       0.00 minutes
Total time:
	user time   =       0.14 seconds =       0.00 minutes
	system time =       0.03 seconds =       0.00 minutes
	total time  =          0 seconds =       0.00 minutes

  //>>>>>>>>>>>>>>>>>>>>>>>>>>>>>>>>>>>//
  //    Loading displacement 3 of 7    //
  //<<<<<<<<<<<<<<<<<<<<<<<<<<<<<<<<<<<//

*** tstart() called on lawn-143-215-103-161.lawn.gatech.edu
*** at Fri Apr 27 13:58:28 2012

	There are an even number of electrons - assuming singlet.
	Specify the multiplicity with the MULTP option in the
	input if this is incorrect


         ---------------------------------------------------------
                                   SCF
            by Justin Turney, Rob Parrish, and Andy Simmonett
                              RHF Reference
                        1 Threads,    250 MiB Core
         ---------------------------------------------------------

  ==> Geometry <==

    Molecular point group: c1

    Geometry (in Angstrom), charge = 0, multiplicity = 1:

       Center              X                  Y                   Z       
    ------------   -----------------  -----------------  -----------------
           O          0.000000000000     0.000000000000    -0.068737541050
           H          0.000000000000    -0.790689573744     0.545457329036
           H          0.000000000000     0.790689573744     0.545457329036

  Running in c1 symmetry.

  Nuclear repulsion =    8.791216689717068

  Charge       = 0
  Multiplicity = 1
  Electrons    = 10
  Nalpha       = 5
  Nbeta        = 5

  ==> Algorithm <==

  SCF Algorithm Type is PK.
  DIIS enabled.
  MOM disabled.
  Fractional occupation disabled.
  Guess Type is CORE.
  Energy threshold   = 1.00e-08
  Density threshold  = 1.00e-08
  Integral threshold = 0.00e+00

  ==> Primary Basis <==

  Basis Set: STO-3G
    Number of shells: 5
    Number of basis function: 7
    Number of Cartesian functions: 7
    Spherical Harmonics?: true
    Max angular momentum: 1

  ==> Pre-Iterations <==

  Minimum eigenvalue in the overlap matrix is 3.7105727976E-01.
  Using Symmetric Orthogonalization.
  SCF Guess: Core (One-Electron) Hamiltonian.

  Initial RHF energy:   -54.63765038333506

   -------------------------------------------------------
    Irrep   Nso     Nmo     Nalpha   Nbeta   Ndocc  Nsocc
   -------------------------------------------------------
     A          7       7       5       5       5       0
   -------------------------------------------------------
    Total       7       7       5       5       5       0
   -------------------------------------------------------

  ==> Integral Setup <==

 MINTS: Wrapper to libmints.
   by Justin Turney

   Calculation information:
      Number of atoms:                   3
      Number of AO shells:               5
      Number of SO shells:               5
      Number of primitives:             15
      Number of atomic orbitals:         7
      Number of basis functions:         7

      Number of irreps:                  1
      Number of functions per irrep: [   7 ]

      Overlap, kinetic, potential, dipole, and quadrupole integrals
        stored in file 35.

      Computing two-electron integrals...done
      Computed 228 non-zero two-electron integrals.
        Stored in file 33.

  ==> Iterations <==

                        Total Energy        Delta E     Density RMS

   @RHF iter   1:   -73.25324854505985   -1.86156e+01   0.00000e+00 
   @RHF iter   2:   -74.93065159044096   -1.67740e+00   2.60806e-01 DIIS
   @RHF iter   3:   -74.96322355838046   -3.25720e-02   3.40086e-02 DIIS
   @RHF iter   4:   -74.96459713726554   -1.37358e-03   9.27942e-03 DIIS
   @RHF iter   5:   -74.96465984369445   -6.27064e-05   1.74800e-03 DIIS
   @RHF iter   6:   -74.96466496956180   -5.12587e-06   5.83706e-04 DIIS
   @RHF iter   7:   -74.96466500414994   -3.45881e-08   4.87987e-05 DIIS
   @RHF iter   8:   -74.96466500414994    0.00000e+00   1.96283e-08 DIIS

  ==> Post-Iterations <==

	Orbital Energies (a.u.)
	-----------------------

	Doubly Occupied:                                                      

	   1A    -20.247687     2A     -1.247426     3A     -0.594971  
	   4A     -0.448166     5A     -0.389044  

	Virtual:                                                              

	   6A      0.563348     7A      0.691150  

	Final Occupation by Irrep:
	          A 
	DOCC [     5 ]

  Energy converged.

  @RHF Final Energy:   -74.96466500414994

   => Energetics <=

    Nuclear Repulsion Energy =          8.7912166897170678
    One-Electron Energy =            -121.6571754407343491
    Two-Electron Energy =              37.9012937468673670
    DFT Functional Energy =             0.0000000000000000
    Empirical Dispersion Energy =       0.0000000000000000
    Total Energy =                    -74.9646650041499072

  ==> Properties <==

  Nuclear Dipole Moment: (a.u.)
     X:     0.0000      Y:    -0.0000      Z:     1.0224

  Electronic Dipole Moment: (a.u.)
     X:     0.0000      Y:    -0.0000      Z:    -0.3660

  Dipole Moment: (a.u.)
     X:     0.0000      Y:    -0.0000      Z:     0.6564     Total:     0.6564

  Dipole Moment: (Debye)
     X:     0.0000      Y:    -0.0000      Z:     1.6684     Total:     1.6684


  Saving occupied orbitals to File 180.

*** tstop() called on lawn-143-215-103-161.lawn.gatech.edu at Fri Apr 27 13:58:28 2012
Module time:
	user time   =       0.03 seconds =       0.00 minutes
	system time =       0.01 seconds =       0.00 minutes
	total time  =          0 seconds =       0.00 minutes
Total time:
	user time   =       0.17 seconds =       0.00 minutes
	system time =       0.04 seconds =       0.00 minutes
	total time  =          0 seconds =       0.00 minutes

  //>>>>>>>>>>>>>>>>>>>>>>>>>>>>>>>>>>>//
  //    Loading displacement 4 of 7    //
  //<<<<<<<<<<<<<<<<<<<<<<<<<<<<<<<<<<<//

*** tstart() called on lawn-143-215-103-161.lawn.gatech.edu
*** at Fri Apr 27 13:58:28 2012

	There are an even number of electrons - assuming singlet.
	Specify the multiplicity with the MULTP option in the
	input if this is incorrect


         ---------------------------------------------------------
                                   SCF
            by Justin Turney, Rob Parrish, and Andy Simmonett
                              RHF Reference
                        1 Threads,    250 MiB Core
         ---------------------------------------------------------

  ==> Geometry <==

    Molecular point group: c1

    Geometry (in Angstrom), charge = 0, multiplicity = 1:

       Center              X                  Y                   Z       
    ------------   -----------------  -----------------  -----------------
           O          0.000000000000     0.000000000000    -0.068294897570
           H          0.000000000000    -0.790689573744     0.541944792413
           H          0.000000000000     0.790689573744     0.541944792413

  Running in c1 symmetry.

  Nuclear repulsion =    8.811718490323454

  Charge       = 0
  Multiplicity = 1
  Electrons    = 10
  Nalpha       = 5
  Nbeta        = 5

  ==> Algorithm <==

  SCF Algorithm Type is PK.
  DIIS enabled.
  MOM disabled.
  Fractional occupation disabled.
  Guess Type is CORE.
  Energy threshold   = 1.00e-08
  Density threshold  = 1.00e-08
  Integral threshold = 0.00e+00

  ==> Primary Basis <==

  Basis Set: STO-3G
    Number of shells: 5
    Number of basis function: 7
    Number of Cartesian functions: 7
    Spherical Harmonics?: true
    Max angular momentum: 1

  ==> Pre-Iterations <==

  Minimum eigenvalue in the overlap matrix is 3.6951300188E-01.
  Using Symmetric Orthogonalization.
  SCF Guess: Core (One-Electron) Hamiltonian.

  Initial RHF energy:   -54.63086750183673

   -------------------------------------------------------
    Irrep   Nso     Nmo     Nalpha   Nbeta   Ndocc  Nsocc
   -------------------------------------------------------
     A          7       7       5       5       5       0
   -------------------------------------------------------
    Total       7       7       5       5       5       0
   -------------------------------------------------------

  ==> Integral Setup <==

 MINTS: Wrapper to libmints.
   by Justin Turney

   Calculation information:
      Number of atoms:                   3
      Number of AO shells:               5
      Number of SO shells:               5
      Number of primitives:             15
      Number of atomic orbitals:         7
      Number of basis functions:         7

      Number of irreps:                  1
      Number of functions per irrep: [   7 ]

      Overlap, kinetic, potential, dipole, and quadrupole integrals
        stored in file 35.

      Computing two-electron integrals...done
      Computed 228 non-zero two-electron integrals.
        Stored in file 33.

  ==> Iterations <==

                        Total Energy        Delta E     Density RMS

   @RHF iter   1:   -73.25277200746825   -1.86219e+01   0.00000e+00 
   @RHF iter   2:   -74.93231810301532   -1.67955e+00   2.60796e-01 DIIS
   @RHF iter   3:   -74.96325235448226   -3.09343e-02   3.32305e-02 DIIS
   @RHF iter   4:   -74.96458629118023   -1.33394e-03   9.16818e-03 DIIS
   @RHF iter   5:   -74.96464708375544   -6.07926e-05   1.73410e-03 DIIS
   @RHF iter   6:   -74.96465190119460   -4.81744e-06   5.66247e-04 DIIS
   @RHF iter   7:   -74.96465193447682   -3.32822e-08   4.77315e-05 DIIS
   @RHF iter   8:   -74.96465193447689   -7.10543e-14   2.27147e-08 DIIS

  ==> Post-Iterations <==

	Orbital Energies (a.u.)
	-----------------------

	Doubly Occupied:                                                      

	   1A    -20.246852     2A     -1.248122     3A     -0.596731  
	   4A     -0.447601     5A     -0.388868  

	Virtual:                                                              

	   6A      0.564953     7A      0.694868  

	Final Occupation by Irrep:
	          A 
	DOCC [     5 ]

  Energy converged.

  @RHF Final Energy:   -74.96465193447689

   => Energetics <=

    Nuclear Repulsion Energy =          8.8117184903234538
    One-Electron Energy =            -121.6963922402007228
    Two-Electron Energy =              37.9200218154003892
    DFT Functional Energy =             0.0000000000000000
    Empirical Dispersion Energy =       0.0000000000000000
    Total Energy =                    -74.9646519344768762

  ==> Properties <==

  Nuclear Dipole Moment: (a.u.)
     X:     0.0000      Y:     0.0000      Z:     1.0158

  Electronic Dipole Moment: (a.u.)
     X:     0.0000      Y:     0.0000      Z:    -0.3589

  Dipole Moment: (a.u.)
     X:     0.0000      Y:     0.0000      Z:     0.6569     Total:     0.6569

  Dipole Moment: (Debye)
     X:     0.0000      Y:     0.0000      Z:     1.6696     Total:     1.6696


  Saving occupied orbitals to File 180.

*** tstop() called on lawn-143-215-103-161.lawn.gatech.edu at Fri Apr 27 13:58:28 2012
Module time:
	user time   =       0.03 seconds =       0.00 minutes
	system time =       0.00 seconds =       0.00 minutes
	total time  =          0 seconds =       0.00 minutes
Total time:
	user time   =       0.20 seconds =       0.00 minutes
	system time =       0.04 seconds =       0.00 minutes
	total time  =          0 seconds =       0.00 minutes

  //>>>>>>>>>>>>>>>>>>>>>>>>>>>>>>>>>>>//
  //    Loading displacement 5 of 7    //
  //<<<<<<<<<<<<<<<<<<<<<<<<<<<<<<<<<<<//

*** tstart() called on lawn-143-215-103-161.lawn.gatech.edu
*** at Fri Apr 27 13:58:28 2012

	There are an even number of electrons - assuming singlet.
	Specify the multiplicity with the MULTP option in the
	input if this is incorrect


         ---------------------------------------------------------
                                   SCF
            by Justin Turney, Rob Parrish, and Andy Simmonett
                              RHF Reference
                        1 Threads,    250 MiB Core
         ---------------------------------------------------------

  ==> Geometry <==

    Molecular point group: c1

    Geometry (in Angstrom), charge = 0, multiplicity = 1:

       Center              X                  Y                   Z       
    ------------   -----------------  -----------------  -----------------
           O          0.000000000000     0.000000000000    -0.068516219310
           H          0.000000000000    -0.792553220368     0.543701060724
           H          0.000000000000     0.792553220368     0.543701060724

  Running in c1 symmetry.

  Nuclear repulsion =    8.788215095736605

  Charge       = 0
  Multiplicity = 1
  Electrons    = 10
  Nalpha       = 5
  Nbeta        = 5

  ==> Algorithm <==

  SCF Algorithm Type is PK.
  DIIS enabled.
  MOM disabled.
  Fractional occupation disabled.
  Guess Type is CORE.
  Energy threshold   = 1.00e-08
  Density threshold  = 1.00e-08
  Integral threshold = 0.00e+00

  ==> Primary Basis <==

  Basis Set: STO-3G
    Number of shells: 5
    Number of basis function: 7
    Number of Cartesian functions: 7
    Spherical Harmonics?: true
    Max angular momentum: 1

  ==> Pre-Iterations <==

  Minimum eigenvalue in the overlap matrix is 3.7125954317E-01.
  Using Symmetric Orthogonalization.
  SCF Guess: Core (One-Electron) Hamiltonian.

  Initial RHF energy:   -54.63936676894850

   -------------------------------------------------------
    Irrep   Nso     Nmo     Nalpha   Nbeta   Ndocc  Nsocc
   -------------------------------------------------------
     A          7       7       5       5       5       0
   -------------------------------------------------------
    Total       7       7       5       5       5       0
   -------------------------------------------------------

  ==> Integral Setup <==

 MINTS: Wrapper to libmints.
   by Justin Turney

   Calculation information:
      Number of atoms:                   3
      Number of AO shells:               5
      Number of SO shells:               5
      Number of primitives:             15
      Number of atomic orbitals:         7
      Number of basis functions:         7

      Number of irreps:                  1
      Number of functions per irrep: [   7 ]

      Overlap, kinetic, potential, dipole, and quadrupole integrals
        stored in file 35.

      Computing two-electron integrals...done
      Computed 228 non-zero two-electron integrals.
        Stored in file 33.

  ==> Iterations <==

                        Total Energy        Delta E     Density RMS

   @RHF iter   1:   -73.25385041701875   -1.86145e+01   0.00000e+00 
   @RHF iter   2:   -74.93083762166521   -1.67699e+00   2.60689e-01 DIIS
   @RHF iter   3:   -74.96308169593794   -3.22441e-02   3.38410e-02 DIIS
   @RHF iter   4:   -74.96445237289652   -1.37068e-03   9.27477e-03 DIIS
   @RHF iter   5:   -74.96451531593603   -6.29430e-05   1.75540e-03 DIIS
   @RHF iter   6:   -74.96452042491464   -5.10898e-06   5.83082e-04 DIIS
   @RHF iter   7:   -74.96452045919990   -3.42853e-08   4.85398e-05 DIIS
   @RHF iter   8:   -74.96452045919992   -1.42109e-14   2.04282e-08 DIIS

  ==> Post-Iterations <==

	Orbital Energies (a.u.)
	-----------------------

	Doubly Occupied:                                                      

	   1A    -20.247291     2A     -1.246966     3A     -0.595310  
	   4A     -0.447394     5A     -0.388796  

	Virtual:                                                              

	   6A      0.562516     7A      0.691733  

	Final Occupation by Irrep:
	          A 
	DOCC [     5 ]

  Energy converged.

  @RHF Final Energy:   -74.96452045919992

   => Energetics <=

    Nuclear Repulsion Energy =          8.7882150957366054
    One-Electron Energy =            -121.6539549842158152
    Two-Electron Energy =              37.9012194292792799
    DFT Functional Energy =             0.0000000000000000
    Empirical Dispersion Energy =       0.0000000000000000
    Total Energy =                    -74.9645204591999317

  ==> Properties <==

  Nuclear Dipole Moment: (a.u.)
     X:     0.0000      Y:     0.0000      Z:     1.0191

  Electronic Dipole Moment: (a.u.)
     X:     0.0000      Y:     0.0000      Z:    -0.3635

  Dipole Moment: (a.u.)
     X:     0.0000      Y:     0.0000      Z:     0.6556     Total:     0.6556

  Dipole Moment: (Debye)
     X:     0.0000      Y:     0.0000      Z:     1.6662     Total:     1.6662


  Saving occupied orbitals to File 180.

*** tstop() called on lawn-143-215-103-161.lawn.gatech.edu at Fri Apr 27 13:58:28 2012
Module time:
	user time   =       0.03 seconds =       0.00 minutes
	system time =       0.01 seconds =       0.00 minutes
	total time  =          0 seconds =       0.00 minutes
Total time:
	user time   =       0.23 seconds =       0.00 minutes
	system time =       0.05 seconds =       0.00 minutes
	total time  =          0 seconds =       0.00 minutes

  //>>>>>>>>>>>>>>>>>>>>>>>>>>>>>>>>>>>//
  //    Loading displacement 6 of 7    //
  //<<<<<<<<<<<<<<<<<<<<<<<<<<<<<<<<<<<//

*** tstart() called on lawn-143-215-103-161.lawn.gatech.edu
*** at Fri Apr 27 13:58:28 2012

	There are an even number of electrons - assuming singlet.
	Specify the multiplicity with the MULTP option in the
	input if this is incorrect


         ---------------------------------------------------------
                                   SCF
            by Justin Turney, Rob Parrish, and Andy Simmonett
                              RHF Reference
                        1 Threads,    250 MiB Core
         ---------------------------------------------------------

  ==> Geometry <==

    Molecular point group: c1

    Geometry (in Angstrom), charge = 0, multiplicity = 1:

       Center              X                  Y                   Z       
    ------------   -----------------  -----------------  -----------------
           O          0.000000000000     0.000000000000    -0.068516219310
           H          0.000000000000    -0.788825927119     0.543701060724
           H          0.000000000000     0.788825927119     0.543701060724

  Running in c1 symmetry.

  Nuclear repulsion =    8.814745429922915

  Charge       = 0
  Multiplicity = 1
  Electrons    = 10
  Nalpha       = 5
  Nbeta        = 5

  ==> Algorithm <==

  SCF Algorithm Type is PK.
  DIIS enabled.
  MOM disabled.
  Fractional occupation disabled.
  Guess Type is CORE.
  Energy threshold   = 1.00e-08
  Density threshold  = 1.00e-08
  Integral threshold = 0.00e+00

  ==> Primary Basis <==

  Basis Set: STO-3G
    Number of shells: 5
    Number of basis function: 7
    Number of Cartesian functions: 7
    Spherical Harmonics?: true
    Max angular momentum: 1

  ==> Pre-Iterations <==

  Minimum eigenvalue in the overlap matrix is 3.6930928934E-01.
  Using Symmetric Orthogonalization.
  SCF Guess: Core (One-Electron) Hamiltonian.

  Initial RHF energy:   -54.62913728390145

   -------------------------------------------------------
    Irrep   Nso     Nmo     Nalpha   Nbeta   Ndocc  Nsocc
   -------------------------------------------------------
     A          7       7       5       5       5       0
   -------------------------------------------------------
    Total       7       7       5       5       5       0
   -------------------------------------------------------

  ==> Integral Setup <==

 MINTS: Wrapper to libmints.
   by Justin Turney

   Calculation information:
      Number of atoms:                   3
      Number of AO shells:               5
      Number of SO shells:               5
      Number of primitives:             15
      Number of atomic orbitals:         7
      Number of basis functions:         7

      Number of irreps:                  1
      Number of functions per irrep: [   7 ]

      Overlap, kinetic, potential, dipole, and quadrupole integrals
        stored in file 35.

      Computing two-electron integrals...done
      Computed 228 non-zero two-electron integrals.
        Stored in file 33.

  ==> Iterations <==

                        Total Energy        Delta E     Density RMS

   @RHF iter   1:   -73.25216800632492   -1.86230e+01   0.00000e+00 
   @RHF iter   2:   -74.93213547442400   -1.67997e+00   2.60914e-01 DIIS
   @RHF iter   3:   -74.96339100517145   -3.12555e-02   3.33988e-02 DIIS
   @RHF iter   4:   -74.96472799476254   -1.33699e-03   9.17350e-03 DIIS
   @RHF iter   5:   -74.96478857143606   -6.05767e-05   1.72697e-03 DIIS
   @RHF iter   6:   -74.96479340654776   -4.83511e-06   5.66973e-04 DIIS
   @RHF iter   7:   -74.96479344011041   -3.35627e-08   4.79764e-05 DIIS
   @RHF iter   8:   -74.96479344011047   -5.68434e-14   2.18136e-08 DIIS

  ==> Post-Iterations <==

	Orbital Energies (a.u.)
	-----------------------

	Doubly Occupied:                                                      

	   1A    -20.247250     2A     -1.248586     3A     -0.596391  
	   4A     -0.448375     5A     -0.389118  

	Virtual:                                                              

	   6A      0.565789     7A      0.694282  

	Final Occupation by Irrep:
	          A 
	DOCC [     5 ]

  Energy converged.

  @RHF Final Energy:   -74.96479344011047

   => Energetics <=

    Nuclear Repulsion Energy =          8.8147454299229153
    One-Electron Energy =            -121.6996374334701017
    Two-Electron Energy =              37.9200985634367100
    DFT Functional Energy =             0.0000000000000000
    Empirical Dispersion Energy =       0.0000000000000000
    Total Energy =                    -74.9647934401104692

  ==> Properties <==

  Nuclear Dipole Moment: (a.u.)
     X:     0.0000      Y:     0.0000      Z:     1.0191

  Electronic Dipole Moment: (a.u.)
     X:     0.0000      Y:     0.0000      Z:    -0.3614

  Dipole Moment: (a.u.)
     X:     0.0000      Y:     0.0000      Z:     0.6577     Total:     0.6577

  Dipole Moment: (Debye)
     X:     0.0000      Y:     0.0000      Z:     1.6717     Total:     1.6717


  Saving occupied orbitals to File 180.

*** tstop() called on lawn-143-215-103-161.lawn.gatech.edu at Fri Apr 27 13:58:29 2012
Module time:
	user time   =       0.03 seconds =       0.00 minutes
	system time =       0.01 seconds =       0.00 minutes
	total time  =          1 seconds =       0.02 minutes
Total time:
	user time   =       0.26 seconds =       0.00 minutes
	system time =       0.06 seconds =       0.00 minutes
	total time  =          1 seconds =       0.02 minutes

  //>>>>>>>>>>>>>>>>>>>>>>>>>>>>>>>>>>>//
  //    Loading displacement 7 of 7    //
  //<<<<<<<<<<<<<<<<<<<<<<<<<<<<<<<<<<<//

*** tstart() called on lawn-143-215-103-161.lawn.gatech.edu
*** at Fri Apr 27 13:58:29 2012

	There are an even number of electrons - assuming singlet.
	Specify the multiplicity with the MULTP option in the
	input if this is incorrect


         ---------------------------------------------------------
                                   SCF
            by Justin Turney, Rob Parrish, and Andy Simmonett
                              RHF Reference
                        1 Threads,    250 MiB Core
         ---------------------------------------------------------

  ==> Geometry <==

    Molecular point group: c1

    Geometry (in Angstrom), charge = 0, multiplicity = 1:

       Center              X                  Y                   Z       
    ------------   -----------------  -----------------  -----------------
           O          0.000000000000     0.000000000000    -0.068516219310
           H          0.000000000000    -0.790689573744     0.543701060724
           H          0.000000000000     0.790689573744     0.543701060724

  Running in c1 symmetry.

  Nuclear repulsion =    8.801465529972067

  Charge       = 0
  Multiplicity = 1
  Electrons    = 10
  Nalpha       = 5
  Nbeta        = 5

  ==> Algorithm <==

  SCF Algorithm Type is PK.
  DIIS enabled.
  MOM disabled.
  Fractional occupation disabled.
  Guess Type is CORE.
  Energy threshold   = 1.00e-08
  Density threshold  = 1.00e-08
  Integral threshold = 0.00e+00

  ==> Primary Basis <==

  Basis Set: STO-3G
    Number of shells: 5
    Number of basis function: 7
    Number of Cartesian functions: 7
    Spherical Harmonics?: true
    Max angular momentum: 1

  ==> Pre-Iterations <==

  Minimum eigenvalue in the overlap matrix is 3.7028400642E-01.
  Using Symmetric Orthogonalization.
  SCF Guess: Core (One-Electron) Hamiltonian.

  Initial RHF energy:   -54.63426083487280

   -------------------------------------------------------
    Irrep   Nso     Nmo     Nalpha   Nbeta   Ndocc  Nsocc
   -------------------------------------------------------
     A          7       7       5       5       5       0
   -------------------------------------------------------
    Total       7       7       5       5       5       0
   -------------------------------------------------------

  ==> Integral Setup <==

 MINTS: Wrapper to libmints.
   by Justin Turney

   Calculation information:
      Number of atoms:                   3
      Number of AO shells:               5
      Number of SO shells:               5
      Number of primitives:             15
      Number of atomic orbitals:         7
      Number of basis functions:         7

      Number of irreps:                  1
      Number of functions per irrep: [   7 ]

      Overlap, kinetic, potential, dipole, and quadrupole integrals
        stored in file 35.

      Computing two-electron integrals...done
      Computed 228 non-zero two-electron integrals.
        Stored in file 33.

  ==> Iterations <==

                        Total Energy        Delta E     Density RMS

   @RHF iter   1:   -73.25301168566624   -1.86188e+01   0.00000e+00 
   @RHF iter   2:   -74.93149650876849   -1.67848e+00   2.60800e-01 DIIS
   @RHF iter   3:   -74.96324208529285   -3.17456e-02   3.36189e-02 DIIS
   @RHF iter   4:   -74.96459578982679   -1.35370e-03   9.22393e-03 DIIS
   @RHF iter   5:   -74.96465753478958   -6.17450e-05   1.74105e-03 DIIS
   @RHF iter   6:   -74.96466250496034   -4.97017e-06   5.74971e-04 DIIS
   @RHF iter   7:   -74.96466253888522   -3.39249e-08   4.82594e-05 DIIS
   @RHF iter   8:   -74.96466253888526   -4.26326e-14   2.11189e-08 DIIS

  ==> Post-Iterations <==

	Orbital Energies (a.u.)
	-----------------------

	Doubly Occupied:                                                      

	   1A    -20.247270     2A     -1.247775     3A     -0.595851  
	   4A     -0.447884     5A     -0.388956  

	Virtual:                                                              

	   6A      0.564152     7A      0.693007  

	Final Occupation by Irrep:
	          A 
	DOCC [     5 ]

  Energy converged.

  @RHF Final Energy:   -74.96466253888526

   => Energetics <=

    Nuclear Repulsion Energy =          8.8014655299720665
    One-Electron Energy =            -121.6767825089553412
    Two-Electron Energy =              37.9106544400979999
    DFT Functional Energy =             0.0000000000000000
    Empirical Dispersion Energy =       0.0000000000000000
    Total Energy =                    -74.9646625388852783

  ==> Properties <==

  Nuclear Dipole Moment: (a.u.)
     X:     0.0000      Y:     0.0000      Z:     1.0191

  Electronic Dipole Moment: (a.u.)
     X:    -0.0000      Y:     0.0000      Z:    -0.3624

  Dipole Moment: (a.u.)
     X:    -0.0000      Y:     0.0000      Z:     0.6566     Total:     0.6566

  Dipole Moment: (Debye)
     X:    -0.0000      Y:     0.0000      Z:     1.6690     Total:     1.6690


  Saving occupied orbitals to File 180.

*** tstop() called on lawn-143-215-103-161.lawn.gatech.edu at Fri Apr 27 13:58:29 2012
Module time:
	user time   =       0.03 seconds =       0.00 minutes
	system time =       0.00 seconds =       0.00 minutes
	total time  =          0 seconds =       0.00 minutes
Total time:
	user time   =       0.29 seconds =       0.00 minutes
	system time =       0.06 seconds =       0.00 minutes
	total time  =          1 seconds =       0.02 minutes

-------------------------------------------------------------

  Computing gradient from energies (fd_1_0).
	Using 3-point formula.
	Energy without displacement:  -74.9646625389
	Check energies below for precision!
	Forces are for mass-weighted, symmetry-adapted cartesians (in au).

	 Coord      Energy(-)        Energy(+)        Force
	    0    -74.9646538898   -74.9646538898    -0.0000000000
	    1    -74.9646650041   -74.9646519345     0.0013069673
	    2    -74.9645204592   -74.9647934401    -0.0272980911

	Gradient written to file11.
	Gradient saved to wavefunction.

-------------------------------------------------------------

-------------------------------------------------------------

  Using finite-differences of energies to determine gradients (fd_geoms_1_0).
	Generating geometries for use with 5-point formula.
	Displacement size will be 5.00e-03.
	Number of atoms is 3.
	Number of symmetric SALC's is 3.
	Number of displacements (including reference) is 13.
	irrep = 0, ncomponent = 5
		0: atom 0, direction y, coef 0.270243
		1: atom 1, direction y, coef -0.538299
		2: atom 1, direction z, coef 0.416796
		3: atom 2, direction y, coef -0.538299
		4: atom 2, direction z, coef -0.416796
	irrep = 0, ncomponent = 3
		0: atom 0, direction z, coef 0.334537
		1: atom 1, direction z, coef -0.666365
		2: atom 2, direction z, coef -0.666365
	irrep = 0, ncomponent = 2
		0: atom 1, direction y, coef 0.707107
		1: atom 2, direction y, coef -0.707107

-------------------------------------------------------------

  //>>>>>>>>>>>>>>>>>>>>>>>>>>>>>>>>>>>//
  //    Loading displacement 1 of 13   //
  //<<<<<<<<<<<<<<<<<<<<<<<<<<<<<<<<<<<//

*** tstart() called on lawn-143-215-103-161.lawn.gatech.edu
*** at Fri Apr 27 13:58:29 2012

	There are an even number of electrons - assuming singlet.
	Specify the multiplicity with the MULTP option in the
	input if this is incorrect


         ---------------------------------------------------------
                                   SCF
            by Justin Turney, Rob Parrish, and Andy Simmonett
                              RHF Reference
                        1 Threads,    250 MiB Core
         ---------------------------------------------------------

  ==> Geometry <==

    Molecular point group: c1

    Geometry (in Angstrom), charge = 0, multiplicity = 1:

       Center              X                  Y                   Z       
    ------------   -----------------  -----------------  -----------------
           O          0.054384815335     0.041676036619     0.000000000000
           H          0.054384815335    -0.954452649581     0.000000000000
           H         -0.917511300795     0.293023704879     0.000000000000

  Running in c1 symmetry.

  Nuclear repulsion =    8.801590931847988

  Charge       = 0
  Multiplicity = 1
  Electrons    = 10
  Nalpha       = 5
  Nbeta        = 5

  ==> Algorithm <==

  SCF Algorithm Type is PK.
  DIIS enabled.
  MOM disabled.
  Fractional occupation disabled.
  Guess Type is CORE.
  Energy threshold   = 1.00e-08
  Density threshold  = 1.00e-08
  Integral threshold = 0.00e+00

  ==> Primary Basis <==

  Basis Set: STO-3G
    Number of shells: 5
    Number of basis function: 7
    Number of Cartesian functions: 7
    Spherical Harmonics?: true
    Max angular momentum: 1

  ==> Pre-Iterations <==

  Minimum eigenvalue in the overlap matrix is 3.7018424606E-01.
  Using Symmetric Orthogonalization.
  SCF Guess: Core (One-Electron) Hamiltonian.

  Initial RHF energy:   -54.63420330520302

   -------------------------------------------------------
    Irrep   Nso     Nmo     Nalpha   Nbeta   Ndocc  Nsocc
   -------------------------------------------------------
     A          7       7       5       5       5       0
   -------------------------------------------------------
    Total       7       7       5       5       5       0
   -------------------------------------------------------

  ==> Integral Setup <==

 MINTS: Wrapper to libmints.
   by Justin Turney

   Calculation information:
      Number of atoms:                   3
      Number of AO shells:               5
      Number of SO shells:               5
      Number of primitives:             15
      Number of atomic orbitals:         7
      Number of basis functions:         7

      Number of irreps:                  1
      Number of functions per irrep: [   7 ]

      Overlap, kinetic, potential, dipole, and quadrupole integrals
        stored in file 35.

      Computing two-electron integrals...done
      Computed 206 non-zero two-electron integrals.
        Stored in file 33.

  ==> Iterations <==

                        Total Energy        Delta E     Density RMS

   @RHF iter   1:   -73.25299964574216   -1.86188e+01   0.00000e+00 
   @RHF iter   2:   -74.93145219442339   -1.67845e+00   2.60806e-01 DIIS
   @RHF iter   3:   -74.96320705566619   -3.17549e-02   3.36227e-02 DIIS
   @RHF iter   4:   -74.96456116345612   -1.35411e-03   9.22427e-03 DIIS
   @RHF iter   5:   -74.96462293517276   -6.17717e-05   1.74144e-03 DIIS
   @RHF iter   6:   -74.96462790757241   -4.97240e-06   5.75090e-04 DIIS
   @RHF iter   7:   -74.96462794152716   -3.39547e-08   4.82763e-05 DIIS
   @RHF iter   8:   -74.96462794152831   -1.15108e-12   2.33159e-07 DIIS
   @RHF iter   9:   -74.96462794152831    0.00000e+00   2.21804e-08 DIIS

  ==> Post-Iterations <==

	Orbital Energies (a.u.)
	-----------------------

	Doubly Occupied:                                                      

	   1A    -20.247271     2A     -1.247790     3A     -0.595851  
	   4A     -0.447881     5A     -0.388959  

	Virtual:                                                              

	   6A      0.564043     7A      0.693137  

	Final Occupation by Irrep:
	          A 
	DOCC [     5 ]

  Energy converged.

  @RHF Final Energy:   -74.96462794152831

   => Energetics <=

    Nuclear Repulsion Energy =          8.8015909318479881
    One-Electron Energy =            -121.6769331808068841
    Two-Electron Energy =              37.9107143074305952
    DFT Functional Energy =             0.0000000000000000
    Empirical Dispersion Energy =       0.0000000000000000
    Total Energy =                    -74.9646279415283061

  ==> Properties <==

  Nuclear Dipole Moment: (a.u.)
     X:    -0.8089      Y:    -0.6199      Z:     0.0000

  Electronic Dipole Moment: (a.u.)
     X:     0.2908      Y:     0.2165      Z:    -0.0000

  Dipole Moment: (a.u.)
     X:    -0.5181      Y:    -0.4034      Z:    -0.0000     Total:     0.6566

  Dipole Moment: (Debye)
     X:    -1.3169      Y:    -1.0253      Z:    -0.0000     Total:     1.6690


  Saving occupied orbitals to File 180.

*** tstop() called on lawn-143-215-103-161.lawn.gatech.edu at Fri Apr 27 13:58:29 2012
Module time:
	user time   =       0.03 seconds =       0.00 minutes
	system time =       0.01 seconds =       0.00 minutes
	total time  =          0 seconds =       0.00 minutes
Total time:
	user time   =       0.32 seconds =       0.01 minutes
	system time =       0.07 seconds =       0.00 minutes
	total time  =          1 seconds =       0.02 minutes

  //>>>>>>>>>>>>>>>>>>>>>>>>>>>>>>>>>>>//
  //    Loading displacement 2 of 13   //
  //<<<<<<<<<<<<<<<<<<<<<<<<<<<<<<<<<<<//

*** tstart() called on lawn-143-215-103-161.lawn.gatech.edu
*** at Fri Apr 27 13:58:29 2012

	There are an even number of electrons - assuming singlet.
	Specify the multiplicity with the MULTP option in the
	input if this is incorrect


         ---------------------------------------------------------
                                   SCF
            by Justin Turney, Rob Parrish, and Andy Simmonett
                              RHF Reference
                        1 Threads,    250 MiB Core
         ---------------------------------------------------------

  ==> Geometry <==

    Molecular point group: c1

    Geometry (in Angstrom), charge = 0, multiplicity = 1:

       Center              X                  Y                   Z       
    ------------   -----------------  -----------------  -----------------
           O          0.054279931494     0.041811401678     0.000000000000
           H          0.054279931494    -0.956252935397     0.000000000000
           H         -0.915741834279     0.292675648982     0.000000000000

  Running in c1 symmetry.

  Nuclear repulsion =    8.801496880086468

  Charge       = 0
  Multiplicity = 1
  Electrons    = 10
  Nalpha       = 5
  Nbeta        = 5

  ==> Algorithm <==

  SCF Algorithm Type is PK.
  DIIS enabled.
  MOM disabled.
  Fractional occupation disabled.
  Guess Type is CORE.
  Energy threshold   = 1.00e-08
  Density threshold  = 1.00e-08
  Integral threshold = 0.00e+00

  ==> Primary Basis <==

  Basis Set: STO-3G
    Number of shells: 5
    Number of basis function: 7
    Number of Cartesian functions: 7
    Spherical Harmonics?: true
    Max angular momentum: 1

  ==> Pre-Iterations <==

  Minimum eigenvalue in the overlap matrix is 3.7025904267E-01.
  Using Symmetric Orthogonalization.
  SCF Guess: Core (One-Electron) Hamiltonian.

  Initial RHF energy:   -54.63424645276744

   -------------------------------------------------------
    Irrep   Nso     Nmo     Nalpha   Nbeta   Ndocc  Nsocc
   -------------------------------------------------------
     A          7       7       5       5       5       0
   -------------------------------------------------------
    Total       7       7       5       5       5       0
   -------------------------------------------------------

  ==> Integral Setup <==

 MINTS: Wrapper to libmints.
   by Justin Turney

   Calculation information:
      Number of atoms:                   3
      Number of AO shells:               5
      Number of SO shells:               5
      Number of primitives:             15
      Number of atomic orbitals:         7
      Number of basis functions:         7

      Number of irreps:                  1
      Number of functions per irrep: [   7 ]

      Overlap, kinetic, potential, dipole, and quadrupole integrals
        stored in file 35.

      Computing two-electron integrals...done
      Computed 206 non-zero two-electron integrals.
        Stored in file 33.

  ==> Iterations <==

                        Total Energy        Delta E     Density RMS

   @RHF iter   1:   -73.25300867583670   -1.86188e+01   0.00000e+00 
   @RHF iter   2:   -74.93148543037077   -1.67848e+00   2.60802e-01 DIIS
   @RHF iter   3:   -74.96323332810215   -3.17479e-02   3.36198e-02 DIIS
   @RHF iter   4:   -74.96458713345527   -1.35381e-03   9.22402e-03 DIIS
   @RHF iter   5:   -74.96464888510673   -6.17517e-05   1.74115e-03 DIIS
   @RHF iter   6:   -74.96465385583463   -4.97073e-06   5.75000e-04 DIIS
   @RHF iter   7:   -74.96465388976691   -3.39323e-08   4.82636e-05 DIIS
   @RHF iter   8:   -74.96465388976728   -3.69482e-13   1.18607e-07 DIIS
   @RHF iter   9:   -74.96465388976736   -8.52651e-14   1.39437e-08 DIIS

  ==> Post-Iterations <==

	Orbital Energies (a.u.)
	-----------------------

	Doubly Occupied:                                                      

	   1A    -20.247271     2A     -1.247778     3A     -0.595851  
	   4A     -0.447883     5A     -0.388957  

	Virtual:                                                              

	   6A      0.564125     7A      0.693040  

	Final Occupation by Irrep:
	          A 
	DOCC [     5 ]

  Energy converged.

  @RHF Final Energy:   -74.96465388976736

   => Energetics <=

    Nuclear Repulsion Energy =          8.8014968800864679
    One-Electron Energy =            -121.6768201907691633
    Two-Electron Energy =              37.9106694209153403
    DFT Functional Energy =             0.0000000000000000
    Empirical Dispersion Energy =       0.0000000000000000
    Total Energy =                    -74.9646538897673480

  ==> Properties <==

  Nuclear Dipole Moment: (a.u.)
     X:    -0.8073      Y:    -0.6219      Z:     0.0000

  Electronic Dipole Moment: (a.u.)
     X:     0.2887      Y:     0.2192      Z:    -0.0000

  Dipole Moment: (a.u.)
     X:    -0.5187      Y:    -0.4027      Z:    -0.0000     Total:     0.6566

  Dipole Moment: (Debye)
     X:    -1.3183      Y:    -1.0235      Z:    -0.0000     Total:     1.6690


  Saving occupied orbitals to File 180.

*** tstop() called on lawn-143-215-103-161.lawn.gatech.edu at Fri Apr 27 13:58:29 2012
Module time:
	user time   =       0.03 seconds =       0.00 minutes
	system time =       0.01 seconds =       0.00 minutes
	total time  =          0 seconds =       0.00 minutes
Total time:
	user time   =       0.35 seconds =       0.01 minutes
	system time =       0.08 seconds =       0.00 minutes
	total time  =          1 seconds =       0.02 minutes

  //>>>>>>>>>>>>>>>>>>>>>>>>>>>>>>>>>>>//
  //    Loading displacement 3 of 13   //
  //<<<<<<<<<<<<<<<<<<<<<<<<<<<<<<<<<<<//

*** tstart() called on lawn-143-215-103-161.lawn.gatech.edu
*** at Fri Apr 27 13:58:29 2012

	There are an even number of electrons - assuming singlet.
	Specify the multiplicity with the MULTP option in the
	input if this is incorrect


         ---------------------------------------------------------
                                   SCF
            by Justin Turney, Rob Parrish, and Andy Simmonett
                              RHF Reference
                        1 Threads,    250 MiB Core
         ---------------------------------------------------------

  ==> Geometry <==

    Molecular point group: c1

    Geometry (in Angstrom), charge = 0, multiplicity = 1:

       Center              X                  Y                   Z       
    ------------   -----------------  -----------------  -----------------
           O          0.054070201511     0.042082271586     0.000000000000
           H          0.054070201511    -0.959853403320     0.000000000000
           H         -0.912203537265     0.291977214897     0.000000000000

  Running in c1 symmetry.

  Nuclear repulsion =    8.801496880086468

  Charge       = 0
  Multiplicity = 1
  Electrons    = 10
  Nalpha       = 5
  Nbeta        = 5

  ==> Algorithm <==

  SCF Algorithm Type is PK.
  DIIS enabled.
  MOM disabled.
  Fractional occupation disabled.
  Guess Type is CORE.
  Energy threshold   = 1.00e-08
  Density threshold  = 1.00e-08
  Integral threshold = 0.00e+00

  ==> Primary Basis <==

  Basis Set: STO-3G
    Number of shells: 5
    Number of basis function: 7
    Number of Cartesian functions: 7
    Spherical Harmonics?: true
    Max angular momentum: 1

  ==> Pre-Iterations <==

  Minimum eigenvalue in the overlap matrix is 3.7025904267E-01.
  Using Symmetric Orthogonalization.
  SCF Guess: Core (One-Electron) Hamiltonian.

  Initial RHF energy:   -54.63424645276746

   -------------------------------------------------------
    Irrep   Nso     Nmo     Nalpha   Nbeta   Ndocc  Nsocc
   -------------------------------------------------------
     A          7       7       5       5       5       0
   -------------------------------------------------------
    Total       7       7       5       5       5       0
   -------------------------------------------------------

  ==> Integral Setup <==

 MINTS: Wrapper to libmints.
   by Justin Turney

   Calculation information:
      Number of atoms:                   3
      Number of AO shells:               5
      Number of SO shells:               5
      Number of primitives:             15
      Number of atomic orbitals:         7
      Number of basis functions:         7

      Number of irreps:                  1
      Number of functions per irrep: [   7 ]

      Overlap, kinetic, potential, dipole, and quadrupole integrals
        stored in file 35.

      Computing two-electron integrals...done
      Computed 206 non-zero two-electron integrals.
        Stored in file 33.

  ==> Iterations <==

                        Total Energy        Delta E     Density RMS

   @RHF iter   1:   -73.25300867583672   -1.86188e+01   0.00000e+00 
   @RHF iter   2:   -74.93148543037080   -1.67848e+00   2.60802e-01 DIIS
   @RHF iter   3:   -74.96323332810218   -3.17479e-02   3.36198e-02 DIIS
   @RHF iter   4:   -74.96458713345532   -1.35381e-03   9.22402e-03 DIIS
   @RHF iter   5:   -74.96464888510658   -6.17517e-05   1.74115e-03 DIIS
   @RHF iter   6:   -74.96465385583463   -4.97073e-06   5.75000e-04 DIIS
   @RHF iter   7:   -74.96465388976699   -3.39324e-08   4.82636e-05 DIIS
   @RHF iter   8:   -74.96465388976722   -2.27374e-13   1.18607e-07 DIIS
   @RHF iter   9:   -74.96465388976728   -5.68434e-14   1.39437e-08 DIIS

  ==> Post-Iterations <==

	Orbital Energies (a.u.)
	-----------------------

	Doubly Occupied:                                                      

	   1A    -20.247271     2A     -1.247778     3A     -0.595851  
	   4A     -0.447883     5A     -0.388957  

	Virtual:                                                              

	   6A      0.564125     7A      0.693040  

	Final Occupation by Irrep:
	          A 
	DOCC [     5 ]

  Energy converged.

  @RHF Final Energy:   -74.96465388976728

   => Energetics <=

    Nuclear Repulsion Energy =          8.8014968800864679
    One-Electron Energy =            -121.6768201907690781
    Two-Electron Energy =              37.9106694209153190
    DFT Functional Energy =             0.0000000000000000
    Empirical Dispersion Energy =       0.0000000000000000
    Total Energy =                    -74.9646538897672770

  ==> Properties <==

  Nuclear Dipole Moment: (a.u.)
     X:    -0.8042      Y:    -0.6259      Z:     0.0000

  Electronic Dipole Moment: (a.u.)
     X:     0.2845      Y:     0.2246      Z:     0.0000

  Dipole Moment: (a.u.)
     X:    -0.5197      Y:    -0.4013      Z:     0.0000     Total:     0.6566

  Dipole Moment: (Debye)
     X:    -1.3210      Y:    -1.0200      Z:     0.0000     Total:     1.6690


  Saving occupied orbitals to File 180.

*** tstop() called on lawn-143-215-103-161.lawn.gatech.edu at Fri Apr 27 13:58:29 2012
Module time:
	user time   =       0.03 seconds =       0.00 minutes
	system time =       0.01 seconds =       0.00 minutes
	total time  =          0 seconds =       0.00 minutes
Total time:
	user time   =       0.39 seconds =       0.01 minutes
	system time =       0.09 seconds =       0.00 minutes
	total time  =          1 seconds =       0.02 minutes

  //>>>>>>>>>>>>>>>>>>>>>>>>>>>>>>>>>>>//
  //    Loading displacement 4 of 13   //
  //<<<<<<<<<<<<<<<<<<<<<<<<<<<<<<<<<<<//

*** tstart() called on lawn-143-215-103-161.lawn.gatech.edu
*** at Fri Apr 27 13:58:29 2012

	There are an even number of electrons - assuming singlet.
	Specify the multiplicity with the MULTP option in the
	input if this is incorrect


         ---------------------------------------------------------
                                   SCF
            by Justin Turney, Rob Parrish, and Andy Simmonett
                              RHF Reference
                        1 Threads,    250 MiB Core
         ---------------------------------------------------------

  ==> Geometry <==

    Molecular point group: c1

    Geometry (in Angstrom), charge = 0, multiplicity = 1:

       Center              X                  Y                   Z       
    ------------   -----------------  -----------------  -----------------
           O          0.053965355239     0.042217775893     0.000000000000
           H          0.053965355239    -0.961653585831     0.000000000000
           H         -0.910434704567     0.291626845729     0.000000000000

  Running in c1 symmetry.

  Nuclear repulsion =    8.801590931847990

  Charge       = 0
  Multiplicity = 1
  Electrons    = 10
  Nalpha       = 5
  Nbeta        = 5

  ==> Algorithm <==

  SCF Algorithm Type is PK.
  DIIS enabled.
  MOM disabled.
  Fractional occupation disabled.
  Guess Type is CORE.
  Energy threshold   = 1.00e-08
  Density threshold  = 1.00e-08
  Integral threshold = 0.00e+00

  ==> Primary Basis <==

  Basis Set: STO-3G
    Number of shells: 5
    Number of basis function: 7
    Number of Cartesian functions: 7
    Spherical Harmonics?: true
    Max angular momentum: 1

  ==> Pre-Iterations <==

  Minimum eigenvalue in the overlap matrix is 3.7018424606E-01.
  Using Symmetric Orthogonalization.
  SCF Guess: Core (One-Electron) Hamiltonian.

  Initial RHF energy:   -54.63420330520291

   -------------------------------------------------------
    Irrep   Nso     Nmo     Nalpha   Nbeta   Ndocc  Nsocc
   -------------------------------------------------------
     A          7       7       5       5       5       0
   -------------------------------------------------------
    Total       7       7       5       5       5       0
   -------------------------------------------------------

  ==> Integral Setup <==

 MINTS: Wrapper to libmints.
   by Justin Turney

   Calculation information:
      Number of atoms:                   3
      Number of AO shells:               5
      Number of SO shells:               5
      Number of primitives:             15
      Number of atomic orbitals:         7
      Number of basis functions:         7

      Number of irreps:                  1
      Number of functions per irrep: [   7 ]

      Overlap, kinetic, potential, dipole, and quadrupole integrals
        stored in file 35.

      Computing two-electron integrals...done
      Computed 206 non-zero two-electron integrals.
        Stored in file 33.

  ==> Iterations <==

                        Total Energy        Delta E     Density RMS

   @RHF iter   1:   -73.25299964574211   -1.86188e+01   0.00000e+00 
   @RHF iter   2:   -74.93145219442326   -1.67845e+00   2.60806e-01 DIIS
   @RHF iter   3:   -74.96320705566612   -3.17549e-02   3.36227e-02 DIIS
   @RHF iter   4:   -74.96456116345604   -1.35411e-03   9.22427e-03 DIIS
   @RHF iter   5:   -74.96462293517271   -6.17717e-05   1.74144e-03 DIIS
   @RHF iter   6:   -74.96462790757232   -4.97240e-06   5.75090e-04 DIIS
   @RHF iter   7:   -74.96462794152711   -3.39548e-08   4.82763e-05 DIIS
   @RHF iter   8:   -74.96462794152822   -1.10845e-12   2.33159e-07 DIIS
   @RHF iter   9:   -74.96462794152825   -2.84217e-14   2.21804e-08 DIIS

  ==> Post-Iterations <==

	Orbital Energies (a.u.)
	-----------------------

	Doubly Occupied:                                                      

	   1A    -20.247271     2A     -1.247790     3A     -0.595851  
	   4A     -0.447881     5A     -0.388959  

	Virtual:                                                              

	   6A      0.564043     7A      0.693137  

	Final Occupation by Irrep:
	          A 
	DOCC [     5 ]

  Energy converged.

  @RHF Final Energy:   -74.96462794152825

   => Energetics <=

    Nuclear Repulsion Energy =          8.8015909318479899
    One-Electron Energy =            -121.6769331808068131
    Two-Electron Energy =              37.9107143074305526
    DFT Functional Energy =             0.0000000000000000
    Empirical Dispersion Energy =       0.0000000000000000
    Total Energy =                    -74.9646279415282635

  ==> Properties <==

  Nuclear Dipole Moment: (a.u.)
     X:    -0.8027      Y:    -0.6279      Z:     0.0000

  Electronic Dipole Moment: (a.u.)
     X:     0.2824      Y:     0.2273      Z:     0.0000

  Dipole Moment: (a.u.)
     X:    -0.5203      Y:    -0.4006      Z:     0.0000     Total:     0.6566

  Dipole Moment: (Debye)
     X:    -1.3224      Y:    -1.0183      Z:     0.0000     Total:     1.6690


  Saving occupied orbitals to File 180.

*** tstop() called on lawn-143-215-103-161.lawn.gatech.edu at Fri Apr 27 13:58:29 2012
Module time:
	user time   =       0.03 seconds =       0.00 minutes
	system time =       0.01 seconds =       0.00 minutes
	total time  =          0 seconds =       0.00 minutes
Total time:
	user time   =       0.42 seconds =       0.01 minutes
	system time =       0.10 seconds =       0.00 minutes
	total time  =          1 seconds =       0.02 minutes

  //>>>>>>>>>>>>>>>>>>>>>>>>>>>>>>>>>>>//
  //    Loading displacement 5 of 13   //
  //<<<<<<<<<<<<<<<<<<<<<<<<<<<<<<<<<<<//

*** tstart() called on lawn-143-215-103-161.lawn.gatech.edu
*** at Fri Apr 27 13:58:29 2012

	There are an even number of electrons - assuming singlet.
	Specify the multiplicity with the MULTP option in the
	input if this is incorrect


         ---------------------------------------------------------
                                   SCF
            by Justin Turney, Rob Parrish, and Andy Simmonett
                              RHF Reference
                        1 Threads,    250 MiB Core
         ---------------------------------------------------------

  ==> Geometry <==

    Molecular point group: c1

    Geometry (in Angstrom), charge = 0, multiplicity = 1:

       Center              X                  Y                   Z       
    ------------   -----------------  -----------------  -----------------
           O          0.000000000000     0.000000000000    -0.068958862790
           H          0.000000000000    -0.790689573744     0.547213597348
           H          0.000000000000     0.790689573744     0.547213597348

  Running in c1 symmetry.

  Nuclear repulsion =    8.780972104331349

  Charge       = 0
  Multiplicity = 1
  Electrons    = 10
  Nalpha       = 5
  Nbeta        = 5

  ==> Algorithm <==

  SCF Algorithm Type is PK.
  DIIS enabled.
  MOM disabled.
  Fractional occupation disabled.
  Guess Type is CORE.
  Energy threshold   = 1.00e-08
  Density threshold  = 1.00e-08
  Integral threshold = 0.00e+00

  ==> Primary Basis <==

  Basis Set: STO-3G
    Number of shells: 5
    Number of basis function: 7
    Number of Cartesian functions: 7
    Spherical Harmonics?: true
    Max angular momentum: 1

  ==> Pre-Iterations <==

  Minimum eigenvalue in the overlap matrix is 3.7183281018E-01.
  Using Symmetric Orthogonalization.
  SCF Guess: Core (One-Electron) Hamiltonian.

  Initial RHF energy:   -54.64103611051066

   -------------------------------------------------------
    Irrep   Nso     Nmo     Nalpha   Nbeta   Ndocc  Nsocc
   -------------------------------------------------------
     A          7       7       5       5       5       0
   -------------------------------------------------------
    Total       7       7       5       5       5       0
   -------------------------------------------------------

  ==> Integral Setup <==

 MINTS: Wrapper to libmints.
   by Justin Turney

   Calculation information:
      Number of atoms:                   3
      Number of AO shells:               5
      Number of SO shells:               5
      Number of primitives:             15
      Number of atomic orbitals:         7
      Number of basis functions:         7

      Number of irreps:                  1
      Number of functions per irrep: [   7 ]

      Overlap, kinetic, potential, dipole, and quadrupole integrals
        stored in file 35.

      Computing two-electron integrals...done
      Computed 228 non-zero two-electron integrals.
        Stored in file 33.

  ==> Iterations <==

                        Total Energy        Delta E     Density RMS

   @RHF iter   1:   -73.25348259240197   -1.86124e+01   0.00000e+00 
   @RHF iter   2:   -74.92978320391150   -1.67630e+00   2.60814e-01 DIIS
   @RHF iter   3:   -74.96319678688998   -3.34136e-02   3.43996e-02 DIIS
   @RHF iter   4:   -74.96459034502334   -1.39356e-03   9.33465e-03 DIIS
   @RHF iter   5:   -74.96465402176661   -6.36767e-05   1.75494e-03 DIIS
   @RHF iter   6:   -74.96465930627544   -5.28451e-06   5.92451e-04 DIIS
   @RHF iter   7:   -74.96465934154851   -3.52731e-08   4.93498e-05 DIIS
   @RHF iter   8:   -74.96465934154851    0.00000e+00   1.82824e-08 DIIS

  ==> Post-Iterations <==

	Orbital Energies (a.u.)
	-----------------------

	Doubly Occupied:                                                      

	   1A    -20.248102     2A     -1.247076     3A     -0.594092  
[...]
   @RHF iter   7:   -74.96452045919995   -3.42853e-08   7.41457e-05 DIIS
   @RHF iter   8:   -74.96452045920002   -7.10543e-14   3.12045e-08 DIIS

  ==> Post-Iterations <==

	Orbital Energies (a.u.)
	-----------------------

	Doubly Occupied:                                                      

	   1A1   -20.247291     2A1    -1.246966     1B2    -0.595310  
	   3A1    -0.447394     1B1    -0.388796  

	Virtual:                                                              

	   4A1     0.562516     2B2     0.691733  

	Final Occupation by Irrep:
	         A1    A2    B1    B2 
	DOCC [     3,    0,    1,    1 ]

  Energy converged.

  @RHF Final Energy:   -74.96452045920002

   => Energetics <=

    Nuclear Repulsion Energy =          8.7882150957366054
    One-Electron Energy =            -121.6539549842160710
    Two-Electron Energy =              37.9012194292794433
    DFT Functional Energy =             0.0000000000000000
    Empirical Dispersion Energy =       0.0000000000000000
    Total Energy =                    -74.9645204592000312

  ==> Properties <==

  Nuclear Dipole Moment: (a.u.)
     X:     0.0000      Y:     0.0000      Z:     1.0191

  Electronic Dipole Moment: (a.u.)
     X:     0.0000      Y:     0.0000      Z:    -0.3635

  Dipole Moment: (a.u.)
     X:     0.0000      Y:     0.0000      Z:     0.6556     Total:     0.6556

  Dipole Moment: (Debye)
     X:     0.0000      Y:     0.0000      Z:     1.6662     Total:     1.6662


  Saving occupied orbitals to File 180.

*** tstop() called on lawn-143-215-103-161.lawn.gatech.edu at Fri Apr 27 13:58:30 2012
Module time:
	user time   =       0.03 seconds =       0.00 minutes
	system time =       0.00 seconds =       0.00 minutes
	total time  =          0 seconds =       0.00 minutes
Total time:
	user time   =       1.04 seconds =       0.02 minutes
	system time =       0.25 seconds =       0.00 minutes
	total time  =          2 seconds =       0.03 minutes

  //>>>>>>>>>>>>>>>>>>>>>>>>>>>>>>>>>>>//
  //    Loading displacement 7 of 9    //
  //<<<<<<<<<<<<<<<<<<<<<<<<<<<<<<<<<<<//

*** tstart() called on lawn-143-215-103-161.lawn.gatech.edu
*** at Fri Apr 27 13:58:30 2012

	There are an even number of electrons - assuming singlet.
	Specify the multiplicity with the MULTP option in the
	input if this is incorrect


         ---------------------------------------------------------
                                   SCF
            by Justin Turney, Rob Parrish, and Andy Simmonett
                              RHF Reference
                        1 Threads,    250 MiB Core
         ---------------------------------------------------------

  ==> Geometry <==

    Molecular point group: c2v

    Geometry (in Angstrom), charge = 0, multiplicity = 1:

       Center              X                  Y                   Z       
    ------------   -----------------  -----------------  -----------------
           O          0.000000000000     0.000000000000    -0.068516219310
           H          0.000000000000    -0.788825927119     0.543701060724
           H          0.000000000000     0.788825927119     0.543701060724

  Running in c2v symmetry.

  Nuclear repulsion =    8.814745429922914

  Charge       = 0
  Multiplicity = 1
  Electrons    = 10
  Nalpha       = 5
  Nbeta        = 5

  ==> Algorithm <==

  SCF Algorithm Type is PK.
  DIIS enabled.
  MOM disabled.
  Fractional occupation disabled.
  Guess Type is CORE.
  Energy threshold   = 1.00e-08
  Density threshold  = 1.00e-08
  Integral threshold = 0.00e+00

  ==> Primary Basis <==

  Basis Set: STO-3G
    Number of shells: 5
    Number of basis function: 7
    Number of Cartesian functions: 7
    Spherical Harmonics?: true
    Max angular momentum: 1

  ==> Pre-Iterations <==

  Minimum eigenvalue in the overlap matrix is 3.6930928934E-01.
  Using Symmetric Orthogonalization.
  SCF Guess: Core (One-Electron) Hamiltonian.

  Initial RHF energy:   -54.62913728390148

   -------------------------------------------------------
    Irrep   Nso     Nmo     Nalpha   Nbeta   Ndocc  Nsocc
   -------------------------------------------------------
     A1         4       4       3       3       3       0
     A2         0       0       0       0       0       0
     B1         1       1       1       1       1       0
     B2         2       2       1       1       1       0
   -------------------------------------------------------
    Total       7       7       5       5       5       0
   -------------------------------------------------------

  ==> Integral Setup <==

 MINTS: Wrapper to libmints.
   by Justin Turney

   Calculation information:
      Number of atoms:                   3
      Number of AO shells:               5
      Number of SO shells:               4
      Number of primitives:             15
      Number of atomic orbitals:         7
      Number of basis functions:         7

      Number of irreps:                  4
      Number of functions per irrep: [   4    0    1    2 ]

      Overlap, kinetic, potential, dipole, and quadrupole integrals
        stored in file 35.

      Computing two-electron integrals...done
      Computed 138 non-zero two-electron integrals.
        Stored in file 33.

  ==> Iterations <==

                        Total Energy        Delta E     Density RMS

   @RHF iter   1:   -73.25216800632496   -1.86230e+01   0.00000e+00 
   @RHF iter   2:   -74.93213547442407   -1.67997e+00   3.98553e-01 DIIS
   @RHF iter   3:   -74.96339100517147   -3.12555e-02   5.10175e-02 DIIS
   @RHF iter   4:   -74.96472799476263   -1.33699e-03   1.40128e-02 DIIS
   @RHF iter   5:   -74.96478857143606   -6.05767e-05   2.63798e-03 DIIS
   @RHF iter   6:   -74.96479340654777   -4.83511e-06   8.66065e-04 DIIS
   @RHF iter   7:   -74.96479344011047   -3.35627e-08   7.32852e-05 DIIS
   @RHF iter   8:   -74.96479344011048   -1.42109e-14   3.33209e-08 DIIS

  ==> Post-Iterations <==

	Orbital Energies (a.u.)
	-----------------------

	Doubly Occupied:                                                      

	   1A1   -20.247250     2A1    -1.248586     1B2    -0.596391  
	   3A1    -0.448375     1B1    -0.389118  

	Virtual:                                                              

	   4A1     0.565789     2B2     0.694282  

	Final Occupation by Irrep:
	         A1    A2    B1    B2 
	DOCC [     3,    0,    1,    1 ]

  Energy converged.

  @RHF Final Energy:   -74.96479344011048

   => Energetics <=

    Nuclear Repulsion Energy =          8.8147454299229135
    One-Electron Energy =            -121.6996374334702011
    Two-Electron Energy =              37.9200985634368095
    DFT Functional Energy =             0.0000000000000000
    Empirical Dispersion Energy =       0.0000000000000000
    Total Energy =                    -74.9647934401104834

  ==> Properties <==

  Nuclear Dipole Moment: (a.u.)
     X:     0.0000      Y:     0.0000      Z:     1.0191

  Electronic Dipole Moment: (a.u.)
     X:     0.0000      Y:     0.0000      Z:    -0.3614

  Dipole Moment: (a.u.)
     X:     0.0000      Y:     0.0000      Z:     0.6577     Total:     0.6577

  Dipole Moment: (Debye)
     X:     0.0000      Y:     0.0000      Z:     1.6717     Total:     1.6717


  Saving occupied orbitals to File 180.

*** tstop() called on lawn-143-215-103-161.lawn.gatech.edu at Fri Apr 27 13:58:30 2012
Module time:
	user time   =       0.03 seconds =       0.00 minutes
	system time =       0.01 seconds =       0.00 minutes
	total time  =          0 seconds =       0.00 minutes
Total time:
	user time   =       1.07 seconds =       0.02 minutes
	system time =       0.26 seconds =       0.00 minutes
	total time  =          2 seconds =       0.03 minutes

  //>>>>>>>>>>>>>>>>>>>>>>>>>>>>>>>>>>>//
  //    Loading displacement 8 of 9    //
  //<<<<<<<<<<<<<<<<<<<<<<<<<<<<<<<<<<<//

*** tstart() called on lawn-143-215-103-161.lawn.gatech.edu
*** at Fri Apr 27 13:58:30 2012

	There are an even number of electrons - assuming singlet.
	Specify the multiplicity with the MULTP option in the
	input if this is incorrect


         ---------------------------------------------------------
                                   SCF
            by Justin Turney, Rob Parrish, and Andy Simmonett
                              RHF Reference
                        1 Threads,    250 MiB Core
         ---------------------------------------------------------

  ==> Geometry <==

    Molecular point group: c2v

    Geometry (in Angstrom), charge = 0, multiplicity = 1:

       Center              X                  Y                   Z       
    ------------   -----------------  -----------------  -----------------
           O          0.000000000000     0.000000000000    -0.068516219310
           H          0.000000000000    -0.786962280495     0.543701060724
           H          0.000000000000     0.786962280495     0.543701060724

  Running in c2v symmetry.

  Nuclear repulsion =    8.828054838056744

  Charge       = 0
  Multiplicity = 1
  Electrons    = 10
  Nalpha       = 5
  Nbeta        = 5

  ==> Algorithm <==

  SCF Algorithm Type is PK.
  DIIS enabled.
  MOM disabled.
  Fractional occupation disabled.
  Guess Type is CORE.
  Energy threshold   = 1.00e-08
  Density threshold  = 1.00e-08
  Integral threshold = 0.00e+00

  ==> Primary Basis <==

  Basis Set: STO-3G
    Number of shells: 5
    Number of basis function: 7
    Number of Cartesian functions: 7
    Spherical Harmonics?: true
    Max angular momentum: 1

  ==> Pre-Iterations <==

  Minimum eigenvalue in the overlap matrix is 3.6833541092E-01.
  Using Symmetric Orthogonalization.
  SCF Guess: Core (One-Electron) Hamiltonian.

  Initial RHF energy:   -54.62399603420911

   -------------------------------------------------------
    Irrep   Nso     Nmo     Nalpha   Nbeta   Ndocc  Nsocc
   -------------------------------------------------------
     A1         4       4       3       3       3       0
     A2         0       0       0       0       0       0
     B1         1       1       1       1       1       0
     B2         2       2       1       1       1       0
   -------------------------------------------------------
    Total       7       7       5       5       5       0
   -------------------------------------------------------

  ==> Integral Setup <==

 MINTS: Wrapper to libmints.
   by Justin Turney

   Calculation information:
      Number of atoms:                   3
      Number of AO shells:               5
      Number of SO shells:               4
      Number of primitives:             15
      Number of atomic orbitals:         7
      Number of basis functions:         7

      Number of irreps:                  4
      Number of functions per irrep: [   4    0    1    2 ]

      Overlap, kinetic, potential, dipole, and quadrupole integrals
        stored in file 35.

      Computing two-electron integrals...done
      Computed 138 non-zero two-electron integrals.
        Stored in file 33.

  ==> Iterations <==

                        Total Energy        Delta E     Density RMS

   @RHF iter   1:   -73.25131936116951   -1.86273e+01   0.00000e+00 
   @RHF iter   2:   -74.93275456957284   -1.68144e+00   3.98729e-01 DIIS
   @RHF iter   3:   -74.96352837724847   -3.07738e-02   5.06846e-02 DIIS
   @RHF iter   4:   -74.96484890617685   -1.32053e-03   1.39363e-02 DIIS
   @RHF iter   5:   -74.96490834359142   -5.94374e-05   2.61685e-03 DIIS
   @RHF iter   6:   -74.96491304732098   -4.70373e-06   8.54022e-04 DIIS
   @RHF iter   7:   -74.96491308051947   -3.31985e-08   7.28488e-05 DIIS
   @RHF iter   8:   -74.96491308051948   -1.42109e-14   3.43731e-08 DIIS

  ==> Post-Iterations <==

	Orbital Energies (a.u.)
	-----------------------

	Doubly Occupied:                                                      

	   1A1   -20.247230     2A1    -1.249402     1B2    -0.596929  
	   3A1    -0.448867     1B1    -0.389281  

	Virtual:                                                              

	   4A1     0.567426     2B2     0.695558  

	Final Occupation by Irrep:
	         A1    A2    B1    B2 
	DOCC [     3,    0,    1,    1 ]

  Energy converged.

  @RHF Final Energy:   -74.96491308051948

   => Energetics <=

    Nuclear Repulsion Energy =          8.8280548380567438
    One-Electron Energy =            -121.7225197037547844
    Two-Electron Energy =              37.9295517851785604
    DFT Functional Energy =             0.0000000000000000
    Empirical Dispersion Energy =       0.0000000000000000
    Total Energy =                    -74.9649130805194801

  ==> Properties <==

  Nuclear Dipole Moment: (a.u.)
     X:     0.0000      Y:     0.0000      Z:     1.0191

  Electronic Dipole Moment: (a.u.)
     X:     0.0000      Y:     0.0000      Z:    -0.3603

  Dipole Moment: (a.u.)
     X:     0.0000      Y:     0.0000      Z:     0.6588     Total:     0.6588

  Dipole Moment: (Debye)
     X:     0.0000      Y:     0.0000      Z:     1.6745     Total:     1.6745


  Saving occupied orbitals to File 180.

*** tstop() called on lawn-143-215-103-161.lawn.gatech.edu at Fri Apr 27 13:58:30 2012
Module time:
	user time   =       0.03 seconds =       0.00 minutes
	system time =       0.01 seconds =       0.00 minutes
	total time  =          0 seconds =       0.00 minutes
Total time:
	user time   =       1.10 seconds =       0.02 minutes
	system time =       0.27 seconds =       0.00 minutes
	total time  =          2 seconds =       0.03 minutes

  //>>>>>>>>>>>>>>>>>>>>>>>>>>>>>>>>>>>//
  //    Loading displacement 9 of 9    //
  //<<<<<<<<<<<<<<<<<<<<<<<<<<<<<<<<<<<//

*** tstart() called on lawn-143-215-103-161.lawn.gatech.edu
*** at Fri Apr 27 13:58:30 2012

	There are an even number of electrons - assuming singlet.
	Specify the multiplicity with the MULTP option in the
	input if this is incorrect


         ---------------------------------------------------------
                                   SCF
            by Justin Turney, Rob Parrish, and Andy Simmonett
                              RHF Reference
                        1 Threads,    250 MiB Core
         ---------------------------------------------------------

  ==> Geometry <==

    Molecular point group: c2v

    Geometry (in Angstrom), charge = 0, multiplicity = 1:

       Center              X                  Y                   Z       
    ------------   -----------------  -----------------  -----------------
           O          0.000000000000     0.000000000000    -0.068516219310
           H          0.000000000000    -0.790689573744     0.543701060724
           H          0.000000000000     0.790689573744     0.543701060724

  Running in c2v symmetry.

  Nuclear repulsion =    8.801465529972067

  Charge       = 0
  Multiplicity = 1
  Electrons    = 10
  Nalpha       = 5
  Nbeta        = 5

  ==> Algorithm <==

  SCF Algorithm Type is PK.
  DIIS enabled.
  MOM disabled.
  Fractional occupation disabled.
  Guess Type is CORE.
  Energy threshold   = 1.00e-08
  Density threshold  = 1.00e-08
  Integral threshold = 0.00e+00

  ==> Primary Basis <==

  Basis Set: STO-3G
    Number of shells: 5
    Number of basis function: 7
    Number of Cartesian functions: 7
    Spherical Harmonics?: true
    Max angular momentum: 1

  ==> Pre-Iterations <==

  Minimum eigenvalue in the overlap matrix is 3.7028400642E-01.
  Using Symmetric Orthogonalization.
  SCF Guess: Core (One-Electron) Hamiltonian.

  Initial RHF energy:   -54.63426083487271

   -------------------------------------------------------
    Irrep   Nso     Nmo     Nalpha   Nbeta   Ndocc  Nsocc
   -------------------------------------------------------
     A1         4       4       3       3       3       0
     A2         0       0       0       0       0       0
     B1         1       1       1       1       1       0
     B2         2       2       1       1       1       0
   -------------------------------------------------------
    Total       7       7       5       5       5       0
   -------------------------------------------------------

  ==> Integral Setup <==

 MINTS: Wrapper to libmints.
   by Justin Turney

   Calculation information:
      Number of atoms:                   3
      Number of AO shells:               5
      Number of SO shells:               4
      Number of primitives:             15
      Number of atomic orbitals:         7
      Number of basis functions:         7

      Number of irreps:                  4
      Number of functions per irrep: [   4    0    1    2 ]

      Overlap, kinetic, potential, dipole, and quadrupole integrals
        stored in file 35.

      Computing two-electron integrals...done
      Computed 138 non-zero two-electron integrals.
        Stored in file 33.

  ==> Iterations <==

                        Total Energy        Delta E     Density RMS

   @RHF iter   1:   -73.25301168566617   -1.86188e+01   0.00000e+00 
   @RHF iter   2:   -74.93149650876839   -1.67848e+00   3.98379e-01 DIIS
   @RHF iter   3:   -74.96324208529282   -3.17456e-02   5.13537e-02 DIIS
   @RHF iter   4:   -74.96459578982667   -1.35370e-03   1.40898e-02 DIIS
   @RHF iter   5:   -74.96465753478950   -6.17450e-05   2.65950e-03 DIIS
   @RHF iter   6:   -74.96466250496026   -4.97017e-06   8.78282e-04 DIIS
   @RHF iter   7:   -74.96466253888518   -3.39249e-08   7.37174e-05 DIIS
   @RHF iter   8:   -74.96466253888522   -4.26326e-14   3.22597e-08 DIIS

  ==> Post-Iterations <==

	Orbital Energies (a.u.)
	-----------------------

	Doubly Occupied:                                                      

	   1A1   -20.247270     2A1    -1.247775     1B2    -0.595851  
	   3A1    -0.447884     1B1    -0.388956  

	Virtual:                                                              

	   4A1     0.564152     2B2     0.693007  

	Final Occupation by Irrep:
	         A1    A2    B1    B2 
	DOCC [     3,    0,    1,    1 ]

  Energy converged.

  @RHF Final Energy:   -74.96466253888522

   => Energetics <=

    Nuclear Repulsion Energy =          8.8014655299720665
    One-Electron Energy =            -121.6767825089551991
    Two-Electron Energy =              37.9106544400979431
    DFT Functional Energy =             0.0000000000000000
    Empirical Dispersion Energy =       0.0000000000000000
    Total Energy =                    -74.9646625388851930

  ==> Properties <==

  Nuclear Dipole Moment: (a.u.)
     X:     0.0000      Y:     0.0000      Z:     1.0191

  Electronic Dipole Moment: (a.u.)
     X:     0.0000      Y:     0.0000      Z:    -0.3624

  Dipole Moment: (a.u.)
     X:     0.0000      Y:     0.0000      Z:     0.6566     Total:     0.6566

  Dipole Moment: (Debye)
     X:     0.0000      Y:     0.0000      Z:     1.6690     Total:     1.6690


  Saving occupied orbitals to File 180.

*** tstop() called on lawn-143-215-103-161.lawn.gatech.edu at Fri Apr 27 13:58:30 2012
Module time:
	user time   =       0.03 seconds =       0.00 minutes
	system time =       0.01 seconds =       0.00 minutes
	total time  =          0 seconds =       0.00 minutes
Total time:
	user time   =       1.13 seconds =       0.02 minutes
	system time =       0.28 seconds =       0.00 minutes
	total time  =          2 seconds =       0.03 minutes

-------------------------------------------------------------

  Computing gradient from energies (fd_1_0).
	Using 5-point formula.
	Energy without displacement:  -74.9646625389
	Check energies below for precision!
	Forces are for mass-weighted, symmetry-adapted cartesians (in au).

	 Coord      Energy(-2)        Energy(-1)        Energy(+1)        Energy(+2)            Force
	    0    -74.9646593415    -74.9646650041    -74.9646519345    -74.9646331802      0.0013065999
	    1    -74.9643672831    -74.9645204592    -74.9647934401    -74.9649130805     -0.0273008308

	Gradient written to file11.
	Gradient saved to wavefunction.

-------------------------------------------------------------

*** PSI4 exiting successfully. Buy a developer a beer!
