    -----------------------------------------------------------------------
          PSI4: An Open-Source Ab Initio Electronic Structure Package
                              PSI 4.0.0-beta1 Driver

               Git: Rev 8268e5ba0276eef671d5bc4a44cf66fa46407463

    J. M. Turney, A. C. Simmonett, R. M. Parrish, E. G. Hohenstein,
    F. A. Evangelista, J. T. Fermann, B. J. Mintz, L. A. Burns, J. J. Wilke,
    M. L. Abrams, N. J. Russ, M. L. Leininger, C. L. Janssen, E. T. Seidl,
    W. D. Allen, H. F. Schaefer, R. A. King, E. F. Valeev, C. D. Sherrill,
    and T. D. Crawford, WIREs Comput. Mol. Sci., (2011) (doi: 10.1002/wcms.93)

                         Additional Contributions by
    A. E. DePrince, M. Saitow, U. Bozkaya, A. Yu. Sokolov
    -----------------------------------------------------------------------


    Using LocalCommunicator (Number of processes = 1)

    Memory level set to 256.000 MB

  ==> Input File <==

--------------------------------------------------------------------------
#! ROHF-EOM-CCSD/DZ analytic gradient lowest $^{2}B@@1$ state of H2O+ (A1 excitation)

memory 250 mb

molecule h2o {
  1 2
  H -0.107055195862289   0.000000000000000  -1.832806614599657
  O -0.107055195862289   0.000000000000000   0.094714436481352
  H  1.806098405595803   0.000000000000000   0.329620161376194
  units bohr
}

set {
  reference rohf
  basis DZ
  roots_per_irrep [0, 0, 1, 0]
}

gradient('eom-ccsd')
analytic_grad = PsiMod.get_gradient()

gradient('eom-ccsd', dertype=0)
findif_grad = PsiMod.get_gradient()

compare_matrices(analytic_grad, findif_grad, 5, "UHF-EOM-CCSD finite-diff. (3-pt.) vs. analytic gradient to 10^-5") #TEST

set findif points 5

gradient('eom-ccsd', dertype=0)
findif_grad = PsiMod.get_gradient()

compare_matrices(analytic_grad, findif_grad, 6, "UHF-EOM-CCSD finite-diff. (5-pt.) vs. analytic gradient to 10^-7") #TEST

--------------------------------------------------------------------------

  Memory set to 250.000 MiB by Python script.

*** tstart() called on lawn-143-215-103-161.lawn.gatech.edu
*** at Fri Apr 27 14:20:01 2012


         ---------------------------------------------------------
                                   SCF
            by Justin Turney, Rob Parrish, and Andy Simmonett
                             ROHF Reference
                        1 Threads,    250 MiB Core
         ---------------------------------------------------------

  ==> Geometry <==

    Molecular point group: c2v

    Geometry (in Bohr), charge = 1, multiplicity = 2:

       Center              X                  Y                   Z       
    ------------   -----------------  -----------------  -----------------
           H          0.000000000000    -1.443627918148     1.134274838578
           O         -0.000000000000     0.000000000000    -0.142939253226
           H         -0.000000000000     1.443627918148     1.134274838578

  Running in c2v symmetry.

  Nuclear repulsion =    8.647166888151858

  Charge       = 1
  Multiplicity = 2
  Electrons    = 9
  Nalpha       = 5
  Nbeta        = 4

  ==> Algorithm <==

  SCF Algorithm Type is PK.
  DIIS enabled.
  MOM disabled.
  Fractional occupation disabled.
  Guess Type is CORE.
  Energy threshold   = 1.00e-08
  Density threshold  = 1.00e-08
  Integral threshold = 0.00e+00

  ==> Primary Basis <==

  Basis Set: DZ
    Number of shells: 10
    Number of basis function: 14
    Number of Cartesian functions: 14
    Spherical Harmonics?: true
    Max angular momentum: 1

  ==> Pre-Iterations <==

  Minimum eigenvalue in the overlap matrix is 6.0756533921E-02.
  Using Symmetric Orthogonalization.
  SCF Guess: Core (One-Electron) Hamiltonian.

  Initial ROHF energy:   -52.78677512567598

   -------------------------------------------------------
    Irrep   Nso     Nmo     Nalpha   Nbeta   Ndocc  Nsocc
   -------------------------------------------------------
     A1         8       8       3       3       3       0
     A2         0       0       0       0       0       0
     B1         2       2       1       0       0       1
     B2         4       4       1       1       1       0
   -------------------------------------------------------
    Total      14      14       5       4       4       1
   -------------------------------------------------------

  ==> Integral Setup <==

 MINTS: Wrapper to libmints.
   by Justin Turney

   Calculation information:
      Number of atoms:                   3
      Number of AO shells:              10
      Number of SO shells:               8
      Number of primitives:             22
      Number of atomic orbitals:        14
      Number of basis functions:        14

      Number of irreps:                  4
      Number of functions per irrep: [   8    0    2    4 ]

      Overlap, kinetic, potential, dipole, and quadrupole integrals
        stored in file 35.

      Computing two-electron integrals...done
      Computed 1709 non-zero two-electron integrals.
        Stored in file 33.

  ==> Iterations <==

                        Total Energy        Delta E     Density RMS

   @ROHF iter   1:   -71.79500741995460   -1.90082e+01   6.94055e-310 
	Occupation by irrep:
	         A1    A2    B1    B2 
	DOCC [     3,    0,    0,    1 ]
	SOCC [     1,    0,    0,    0 ]

   @ROHF iter   2:   -73.51457382482293   -1.71957e+00   8.45431e-01 DIIS
	Occupation by irrep:
	         A1    A2    B1    B2 
	DOCC [     3,    0,    0,    1 ]
	SOCC [     0,    0,    1,    0 ]

   @ROHF iter   3:   -75.41946464293551   -1.90489e+00   6.42415e-01 DIIS
   @ROHF iter   4:   -75.59280193995377   -1.73337e-01   6.52495e-02 DIIS
   @ROHF iter   5:   -75.59654612502146   -3.74419e-03   9.92567e-03 DIIS
   @ROHF iter   6:   -75.59667160197472   -1.25477e-04   2.32461e-03 DIIS
   @ROHF iter   7:   -75.59667207656118   -4.74586e-07   1.23745e-04 DIIS
   @ROHF iter   8:   -75.59667211171489   -3.51537e-08   4.11908e-05 DIIS
   @ROHF iter   9:   -75.59667211496880   -3.25390e-09   1.43368e-05 DIIS
   @ROHF iter  10:   -75.59667211502297   -5.41718e-11   1.94814e-06 DIIS
   @ROHF iter  11:   -75.59667211502374   -7.67386e-13   2.28138e-07 DIIS
   @ROHF iter  12:   -75.59667211502368    5.68434e-14   1.74344e-08 DIIS

  ==> Post-Iterations <==

	Orbital Energies (a.u.)
	-----------------------

	Doubly Occupied:                                                      

	   1A1   -21.104066     2A1    -1.813380     1B2    -1.147058  
	   3A1    -1.051937  

	Singly Occupied:                                                      

	   1B1    -0.690072  

	Virtual:                                                              

	   4A1    -0.141833     2B2    -0.064208     2B1     0.460457  
	   5A1     0.502093     3B2     0.545323     4B2     0.756617  
	   6A1     0.782858     7A1     1.244045     8A1    42.782181  

	Final Occupation by Irrep:
	         A1    A2    B1    B2 
	DOCC [     3,    0,    0,    1 ]
	SOCC [     0,    0,    1,    0 ]

  Energy converged.

  @ROHF Final Energy:   -75.59667211502368

   => Energetics <=

    Nuclear Repulsion Energy =          8.6471668881518582
    One-Electron Energy =            -117.1401097946173309
    Two-Electron Energy =              32.8962707914418075
    DFT Functional Energy =             0.0000000000000000
    Empirical Dispersion Energy =       0.0000000000000000
    Total Energy =                    -75.5966721150236651

  ==> Properties <==

  Nuclear Dipole Moment: (a.u.)
     X:     0.0000      Y:     0.0000      Z:     1.1250

  Electronic Dipole Moment: (a.u.)
     X:     0.0000      Y:     0.0000      Z:     0.2139

  Dipole Moment: (a.u.)
     X:     0.0000      Y:     0.0000      Z:     1.3389     Total:     1.3389

  Dipole Moment: (Debye)
     X:     0.0000      Y:     0.0000      Z:     3.4031     Total:     3.4031


  Saving occupied orbitals to File 180.

*** tstop() called on lawn-143-215-103-161.lawn.gatech.edu at Fri Apr 27 14:20:01 2012
Module time:
	user time   =       0.04 seconds =       0.00 minutes
	system time =       0.01 seconds =       0.00 minutes
	total time  =          0 seconds =       0.00 minutes
Total time:
	user time   =       0.04 seconds =       0.00 minutes
	system time =       0.01 seconds =       0.00 minutes
	total time  =          0 seconds =       0.00 minutes

*** tstart() called on lawn-143-215-103-161.lawn.gatech.edu
*** at Fri Apr 27 14:20:01 2012


	**************************************************
	* TRANSQT2: Program to transform integrals from  *
	*           the SO basis to the MO basis.        *
	*                                                *
	*            Daniel, David, & Justin             *
	**************************************************


	Input parameters:
	-----------------
	Wave function   =	CCSD
	Backtransform   =	No
	Print Level     =	1
	Print TEIs      =	No
	Reference wfn   =	ROHF
	Derivative      =	First
	Delete TEI File =	Yes
	Memory (Mbytes) =	250.0
	Cache Level     =	2
	Cache Type      =	LRU
	Chkpt Parameters:
	--------------------
	Number of irreps     = 4
	Number of SOs        = 14
	Number of MOs        = 14
	Number of active MOs = 14

	Label	# SOs	# FZDC	# DOCC	# SOCC	# VIRT	# FZVR
	-----	-----	------	------	------	------	------
	 A1	   8	    0	    3	    0	    5	    0
	 A2	   0	    0	    0	    0	    0	    0
	 B1	   2	    0	    0	    1	    1	    0
	 B2	   4	    0	    1	    0	    3	    0

	Nuclear Rep. energy (chkpt) =      8.64716688815186
	SCF energy          (chkpt) =    -75.59667211502368

	Presorting SO-basis two-electron integrals.
	Sorting File: SO Ints (pq,rs) nbuckets = 1
	Frozen-core energy =    0.000000000000000
	Starting first half-transformation.
	Sorting half-transformed integrals.
	Starting second half-transformation.
	Two-electron integral transformation complete.

*** tstop() called on lawn-143-215-103-161.lawn.gatech.edu at Fri Apr 27 14:20:01 2012
Module time:
	user time   =       0.01 seconds =       0.00 minutes
	system time =       0.00 seconds =       0.00 minutes
	total time  =          0 seconds =       0.00 minutes
Total time:
	user time   =       0.05 seconds =       0.00 minutes
	system time =       0.01 seconds =       0.00 minutes
	total time  =          0 seconds =       0.00 minutes

*** tstart() called on lawn-143-215-103-161.lawn.gatech.edu
*** at Fri Apr 27 14:20:01 2012


			**************************
			*                        *
			*         CCSORT         *
			*                        *
			**************************


	Input parameters:
	-----------------
	Wave function   =	CCSD
	Reference wfn   =	ROHF
	Derivative      =	First
	Memory (Mbytes) =	250.0
	AO Basis        =	NONE
	Make (ab|cd)    =	True
	Make unpacked (ab|cd) =	True
	Cache Level     =	2
	Cache Type      =	LRU
	Local CC        =     No


	Chkpt Parameters:
	--------------------
	Number of irreps     = 4
	Number of MOs        = 14
	Number of active MOs = 14

	Label	# MOs	# FZDC	# DOCC	# SOCC	# VIRT	# FZVR
	-----	-----	------	------	------	------	------
	 A1	   8	    0	    3	    0	    5	    0
	 A2	   0	    0	    0	    0	    0	    0
	 B1	   2	    0	    0	    1	    1	    0
	 B2	   4	    0	    1	    0	    3	    0

	Nuclear Rep. energy (chkpt) =      8.64716688815186
	SCF energy          (chkpt) =    -75.59667211502368

	Size of irrep 0 of <ab|cd> integrals:      0.001 (MW) /      0.012 (MB)
	Size of irrep 1 of <ab|cd> integrals:      0.000 (MW) /      0.001 (MB)
	Size of irrep 2 of <ab|cd> integrals:      0.000 (MW) /      0.003 (MB)
	Size of irrep 3 of <ab|cd> integrals:      0.001 (MW) /      0.007 (MB)
	Total:                                     0.003 (MW) /      0.023 (MB)

	Size of irrep 0 of <ia|bc> integrals:      0.001 (MW) /      0.006 (MB)
	Size of irrep 1 of <ia|bc> integrals:      0.000 (MW) /      0.000 (MB)
	Size of irrep 2 of <ia|bc> integrals:      0.000 (MW) /      0.002 (MB)
	Size of irrep 3 of <ia|bc> integrals:      0.000 (MW) /      0.003 (MB)
	Total:                                     0.001 (MW) /      0.012 (MB)

	Size of irrep 0 of tIjAb amplitudes:       0.000 (MW) /      0.003 (MB)
	Size of irrep 1 of tIjAb amplitudes:       0.000 (MW) /      0.000 (MB)
	Size of irrep 2 of tIjAb amplitudes:       0.000 (MW) /      0.001 (MB)
	Size of irrep 3 of tIjAb amplitudes:       0.000 (MW) /      0.001 (MB)
	Total:                                     0.001 (MW) /      0.006 (MB)


	Sorting File: A <ij|kl> nbuckets = 1
	Sorting File: B <ab|cd> nbuckets = 1
	Sorting File: C <ia|jb> nbuckets = 1
	Sorting File: D <ij|ab> nbuckets = 1
	Sorting File: E <ai|jk> nbuckets = 1
	Sorting File: F <ia|bc> nbuckets = 1
	Sorting File: F <ai|bc> nbuckets = 1
	One-electron energy          =   -117.14010978889326
	Two-electron (AA) energy     =     15.41303672177260
	Two-electron (BB) energy     =      9.33518748295257
	Two-electron (AB) energy     =     20.52215868335510
	Two-electron energy          =     32.89627078571769
	Frozen-core energy (transqt) =      0.00000000000000
	Reference energy             =    -75.59667211502371

*** tstop() called on lawn-143-215-103-161.lawn.gatech.edu at Fri Apr 27 14:20:01 2012
Module time:
	user time   =       0.01 seconds =       0.00 minutes
	system time =       0.04 seconds =       0.00 minutes
	total time  =          0 seconds =       0.00 minutes
Total time:
	user time   =       0.06 seconds =       0.00 minutes
	system time =       0.05 seconds =       0.00 minutes
	total time  =          0 seconds =       0.00 minutes

*** tstart() called on lawn-143-215-103-161.lawn.gatech.edu
*** at Fri Apr 27 14:20:01 2012

			**************************
			*                        *
			*        CCENERGY        *
			*                        *
			**************************

	Nuclear Rep. energy (chkpt)   =    8.647166888151858
	SCF energy          (chkpt)   =  -75.596672115023679
	Reference energy    (file100) =  -75.596672115023708

	Input parameters:
	-----------------
	Wave function   =     CCSD
	Reference wfn   =    ROHF
	Memory (Mbytes) =     250.0
	Maxiter         =     50
	Convergence     =     1.0e-07
	Restart         =     No
	DIIS            =     Yes
	AO Basis        =     NONE
	ABCD            =     NEW
	Cache Level     =     2
	Cache Type      =     LOW
	Print Level     =     1
	Num. of threads =     1
	# Amps to Print =     10
	Print MP2 Amps? =     No
	Analyze T2 Amps =     No
	Print Pair Ener =     No
	Local CC        =     No
	SCS-MP2         =     False
	SCSN-MP2        =     False
	SCS-CCSD        =     False

	            Solving CC Amplitude Equations
	            ------------------------------
  Iter             Energy              RMS        T1Diag      D1Diag    New D1Diag
  ----     ---------------------    ---------   ----------  ----------  ----------
     0        -0.103569696093731    0.000e+00    0.000154    0.000452    0.000452
     1        -0.111771016407871    4.000e-02    0.006340    0.011853    0.011853
     2        -0.116057760804708    1.502e-02    0.007707    0.014629    0.014629
     3        -0.117014007692471    5.657e-03    0.008317    0.016143    0.016143
     4        -0.117097862170011    2.369e-03    0.008264    0.016162    0.016162
     5        -0.117126152901989    8.858e-04    0.008258    0.016134    0.016134
     6        -0.117137544905684    2.853e-04    0.008258    0.016130    0.016130
     7        -0.117138549120908    9.235e-05    0.008258    0.016134    0.016134
     8        -0.117139118984028    2.776e-05    0.008259    0.016137    0.016137
     9        -0.117139054340180    8.950e-06    0.008259    0.016137    0.016137
    10        -0.117139022773012    3.122e-06    0.008259    0.016137    0.016137
    11        -0.117139010254566    8.247e-07    0.008259    0.016136    0.016136
    12        -0.117138986216374    2.241e-07    0.008259    0.016136    0.016136
    13        -0.117138982680376    5.580e-08    0.008259    0.016136    0.016136

	Iterations converged.


	Largest TIA Amplitudes:
	          3   5        -0.0113988814
	          1   0        -0.0102859076
	          1   2        -0.0095030342
	          2   0         0.0083153305
	          4   8         0.0070960711
	          4   9        -0.0070682644
	          1   3         0.0034872605
	          2   1         0.0031202515
	          1   1         0.0027264714
	          2   3         0.0024621908

	Largest Tia Amplitudes:
	          4   7         0.0321062937
	          1   0         0.0209978131
	          2   0         0.0171924919
	          2   1        -0.0168047626
	          1   2         0.0147755358
	          4   9         0.0101495625
	          2   3         0.0063791872
	          1   1         0.0051303917
	          4   8         0.0039696074
	          2   2         0.0020776837

	Largest TIJAB Amplitudes:
	  3   2   5   1        -0.0233338237
	  4   3   7   5         0.0195343679
	  4   2   7   1         0.0177278226
	  4   3   9   5         0.0147067254
	  4   2   9   1         0.0134723389
	  4   3   8   5        -0.0129131577
	  3   2   5   0         0.0120955324
	  4   2   8   1        -0.0113112134
	  3   1   5   0         0.0111375520
	  3   1   5   3        -0.0100753956

	Largest Tijab Amplitudes:
	  4   2   7   1         0.0181308340
	  4   2   9   1         0.0130073213
	  4   2   8   1        -0.0108998960
	  2   1   1   0         0.0091927999
	  4   2   7   0        -0.0090596979
	  2   1   3   1         0.0084860035
	  4   1   8   0         0.0073286522
	  4   1   7   0        -0.0071186220
	  4   1   7   3         0.0064364900
	  4   2   8   0         0.0062958852

	Largest TIjAb Amplitudes:
	  4   4   7   7        -0.0526325827
	  2   2   1   1        -0.0435528190
	  4   4   9   7        -0.0352987243
	  4   4   7   9        -0.0347954507
	  3   4   7   6         0.0323853477
	  3   2   5   1        -0.0313728260
	  3   1   0   6         0.0301770134
	  4   4   9   9        -0.0299912950
	  2   4   1   7         0.0271711014
	  4   2   7   1         0.0268068244

	SCF energy       (chkpt)              =  -75.596672115023679
	Reference energy (file100)            =  -75.596672115023708

	Opposite-spin CCSD correlation energy =    0.000000000000000
	Same-spin CCSD correlation energy     =    0.000000000000000
	CCSD correlation energy               =   -0.117138982680376
      * CCSD total energy                     =  -75.713811097704081


*** tstop() called on lawn-143-215-103-161.lawn.gatech.edu at Fri Apr 27 14:20:02 2012
Module time:
	user time   =       0.35 seconds =       0.01 minutes
	system time =       0.38 seconds =       0.01 minutes
	total time  =          1 seconds =       0.02 minutes
Total time:
	user time   =       0.42 seconds =       0.01 minutes
	system time =       0.43 seconds =       0.01 minutes
	total time  =          1 seconds =       0.02 minutes

*** tstart() called on lawn-143-215-103-161.lawn.gatech.edu
*** at Fri Apr 27 14:20:02 2012


			**************************
			*                        *
			*         CCHBAR         *
			*                        *
			**************************


*** tstop() called on lawn-143-215-103-161.lawn.gatech.edu at Fri Apr 27 14:20:02 2012
Module time:
	user time   =       0.03 seconds =       0.00 minutes
	system time =       0.04 seconds =       0.00 minutes
	total time  =          0 seconds =       0.00 minutes
Total time:
	user time   =       0.45 seconds =       0.01 minutes
	system time =       0.47 seconds =       0.01 minutes
	total time  =          1 seconds =       0.02 minutes

*** tstart() called on lawn-143-215-103-161.lawn.gatech.edu
*** at Fri Apr 27 14:20:02 2012


	**********************************************************
	*  CCEOM: An Equation of Motion Coupled Cluster Program  *
	**********************************************************

	Nuclear Rep. energy (chkpt)   =    8.647166888151858
	SCF energy          (chkpt)   =  -75.596672115023679
	Reference energy    (file100) =  -75.596672115023708
	CCSD energy         (file100) =   -0.117138982680376

	Input parameters:
	-----------------
	Reference wfn   =    ROHF
	Reference EOM wfn=    ROHF
	Memory (Mbytes) =  250.0
	ABCD            =     NEW
	Cache Level     =    2
	Cache Type      =     LRU
	Num. of threads =     1
	Local CC        =     No


	CCEOM parameters:
	-----------------
	States sought per irrep     = A1 0, A2 0, B1 1, B2 0,
	Max. number of iterations   =    80
	Vectors stored per root     =    12
	Print HbarSS iterations?    =     0
	Excitation range for HBarSS =     2
	Eigenvalue tolerance        = 1.0e-08
	Eigenvalue toleranceSS      = 1.0e-06
	Residual vector tolerance   = 1.0e-06
	Residual vector toleranceSS = 1.0e-06
	Complex tolerance           = 1.0e-12
	Root for properties         =     1
	Sym of state for properties =     A1
	Guess vectors taken from    = SINGLES
	Restart EOM CC3             = NO
	Collapse with last vector   = YES


Symmetry of ground state: B1
Symmetry of excited state: B1
Symmetry of right eigenvector: A1
Obtaining initial guess from singles-singles block of Hbar...Done.

Iter=1    L=1     Root    EOM Energy     Delta E   Res. Norm    Conv?
                     1   0.5244675723   5.24e-01    3.36e-01      N
Iter=2    L=2     Root    EOM Energy     Delta E   Res. Norm    Conv?
                     1   0.4678544014  -5.66e-02    8.11e-02      N
Iter=3    L=3     Root    EOM Energy     Delta E   Res. Norm    Conv?
                     1   0.4601005041  -7.75e-03    7.00e-02      N
Iter=4    L=4     Root    EOM Energy     Delta E   Res. Norm    Conv?
                     1   0.4543023180  -5.80e-03    6.33e-02      N
Iter=5    L=5     Root    EOM Energy     Delta E   Res. Norm    Conv?
                     1   0.4521270049  -2.18e-03    3.46e-02      N
Iter=6    L=6     Root    EOM Energy     Delta E   Res. Norm    Conv?
                     1   0.4513061600  -8.21e-04    2.32e-02      N
Iter=7    L=7     Root    EOM Energy     Delta E   Res. Norm    Conv?
                     1   0.4507472504  -5.59e-04    2.02e-02      N
Iter=8    L=8     Root    EOM Energy     Delta E   Res. Norm    Conv?
                     1   0.4505471175  -2.00e-04    1.10e-02      N
Iter=9    L=9     Root    EOM Energy     Delta E   Res. Norm    Conv?
                     1   0.4505040349  -4.31e-05    5.19e-03      N
Iter=10   L=10    Root    EOM Energy     Delta E   Res. Norm    Conv?
                     1   0.4504775065  -2.65e-05    4.28e-03      N
Iter=11   L=11    Root    EOM Energy     Delta E   Res. Norm    Conv?
                     1   0.4504674426  -1.01e-05    2.08e-03      N
Iter=12   L=12    Root    EOM Energy     Delta E   Res. Norm    Conv?
                     1   0.4504643615  -3.08e-06    7.76e-04      N
Iter=13   L=2     Root    EOM Energy     Delta E   Res. Norm    Conv?
                     1   0.4504643615   3.33e-16    7.76e-04      N
Iter=14   L=3     Root    EOM Energy     Delta E   Res. Norm    Conv?
                     1   0.4504643413  -2.02e-08    6.28e-04      N
Iter=15   L=4     Root    EOM Energy     Delta E   Res. Norm    Conv?
                     1   0.4504628700  -1.47e-06    4.08e-04      N
Iter=16   L=5     Root    EOM Energy     Delta E   Res. Norm    Conv?
                     1   0.4504625580  -3.12e-07    1.58e-04      N
Iter=17   L=6     Root    EOM Energy     Delta E   Res. Norm    Conv?
                     1   0.4504621629  -3.95e-07    6.79e-05      N
Iter=18   L=7     Root    EOM Energy     Delta E   Res. Norm    Conv?
                     1   0.4504621523  -1.06e-08    2.96e-05      N
Iter=19   L=8     Root    EOM Energy     Delta E   Res. Norm    Conv?
                     1   0.4504621651   1.28e-08    1.04e-05      N
Iter=20   L=9     Root    EOM Energy     Delta E   Res. Norm    Conv?
                     1   0.4504621600  -5.06e-09    4.43e-06      N
Iter=21   L=10    Root    EOM Energy     Delta E   Res. Norm    Conv?
                     1   0.4504621562  -3.82e-09    3.44e-06      N
Iter=22   L=11    Root    EOM Energy     Delta E   Res. Norm    Conv?
                     1   0.4504621560  -2.65e-10    3.55e-06      N
Iter=23   L=12    Root    EOM Energy     Delta E   Res. Norm    Conv?
                     1   0.4504621496  -6.38e-09    1.29e-06      N
Iter=24   L=2     Root    EOM Energy     Delta E   Res. Norm    Conv?
                     1   0.4504621496  -1.56e-13    1.29e-06      N
Iter=25   L=3     Root    EOM Energy     Delta E   Res. Norm    Conv?
                     1   0.4504621493  -2.60e-10    3.39e-07      Y
Collapsing to only 1 vector(s).

Procedure converged for 1 root(s).
Energy written to chkpt:Etot  -75.2633489484
States per irrep written to chkpt.
<R|R> =   0.9999999999999996
EOM CCSD R0 for root 0 =   0.00779842543

Final Energetic Summary for Converged Roots of Irrep B1
                     Excitation Energy              Total Energy
                (eV)     (cm^-1)     (au)             (au)
EOM State 1     12.258    98865.0   0.4504621493   -75.263348948395

Largest components of excited wave function #1:
 RIA (libdpd indices) : (cscf notation)
         2 >   0      :       3a1 >    4a1 :    0.5428262326
         0 >   0      :       1b2 >    2b2 :    0.1260840252
         2 >   2      :       3a1 >    6a1 :    0.0659296144
         2 >   1      :       3a1 >    5a1 :   -0.0578295560
         1 >   0      :       2a1 >    4a1 :    0.0360528719
 Ria (libdpd indices) : (cscf notation)
         2 >   0      :       3a1 >    4a1 :   -0.7132566675
         0 >   0      :       1b2 >    2b2 :   -0.1118780368
         2 >   2      :       3a1 >    6a1 :   -0.0736572622
         2 >   1      :       3a1 >    5a1 :    0.0574293155
         0 >   2      :       1b2 >    4b2 :   -0.0297283724
 RIjAb (libdpd indices)     : (cscf notation)
        0   2 >   0   1     :    1b1    3a1 >    4a1    1b1 :    0.3213266105
        0   0 >   0   1     :    1b1    1b2 >    2b2    1b1 :    0.0848219330
        0   2 >   0   0     :    1b2    3a1 >    2b2    4a1 :    0.0696519031
        2   2 >   1   0     :    3a1    3a1 >    5a1    4a1 :   -0.0553123807
        2   0 >   0   0     :    3a1    1b2 >    4a1    2b2 :   -0.0541333423
 RIJAB (libdpd indices)     : (cscf notation)
        0   2 >   0   0     :    1b1    3a1 >    2b1    4a1 :    0.0281860707
        0   2 >   0   0     :    1b2    3a1 >    2b2    4a1 :   -0.0278311803
        0   2 >   2   0     :    1b2    3a1 >    4b2    4a1 :   -0.0165596331
        2   1 >   2   0     :    3a1    2a1 >    6a1    4a1 :    0.0109583463
        0   2 >   0   2     :    1b2    3a1 >    2b2    6a1 :    0.0097451756
 Rijab (libdpd indices)     : (cscf notation)
        0   2 >   0   0     :    1b2    3a1 >    2b2    4a1 :    0.0376311572
        0   2 >   2   0     :    1b2    3a1 >    4b2    4a1 :    0.0224932099
        2   1 >   1   0     :    3a1    2a1 >    1b1    2b1 :    0.0163404663
        2   1 >   2   0     :    3a1    2a1 >    6a1    4a1 :   -0.0154078869
        0   2 >   0   2     :    1b2    3a1 >    2b2    6a1 :   -0.0140777722

	Putting into environment energy for root of R irrep 1 and root 1.
	Putting into environment CURRENT ENERGY:              -75.2633489484

	Total # of sigma evaluations: 23

*** tstop() called on lawn-143-215-103-161.lawn.gatech.edu at Fri Apr 27 14:20:03 2012
Module time:
	user time   =       0.37 seconds =       0.01 minutes
	system time =       0.29 seconds =       0.00 minutes
	total time  =          1 seconds =       0.02 minutes
Total time:
	user time   =       0.82 seconds =       0.01 minutes
	system time =       0.76 seconds =       0.01 minutes
	total time  =          2 seconds =       0.03 minutes

*** tstart() called on lawn-143-215-103-161.lawn.gatech.edu
*** at Fri Apr 27 14:20:03 2012


			**************************
			*        CCLAMBDA        *
			**************************


	Nuclear Rep. energy (chkpt)   =    8.647166888151858
	Reference           (chkpt)   = 1
	SCF energy          (chkpt)   =  -75.596672115023679
	Reference energy    (CC_INFO) =  -75.596672115023708
	CCSD energy         (CC_INFO) =   -0.117138982680376
	Total CCSD energy   (CC_INFO) =  -75.713811097704081

	Input parameters:
	-----------------
	Maxiter       =      50
	Convergence   = 1.0e-07
	Restart       =     No
	Cache Level   =     2
	Model III     =     No
	DIIS          =     Yes
	AO Basis      =     No
	ABCD            =     NEW
	Local CC        =     No
	Paramaters for left-handed eigenvectors:
	    Irr   Root  Ground-State?    EOM energy        R0
	  1   0     1         No       0.4504621493   0.0077984254
	Labels for eigenvector 1:
	LIA 0 0, Lia 0 0, LIJAB 0 0, Lijab 0 0, LIjAb 0 0, 2LIjAb - LIjbA 0 0
	Deleting old CC_LAMBDA data.
	Symmetry of left-hand state: B1
	Symmetry of left-hand eigenvector: A1
	Initial overlap of initial guess <L|R> =    0.9998894034
	Checking overlap of initial guess <L|R> =    1.0000000000

	          Solving Lambda Equations
	          ------------------------
	Iter     PseudoEnergy or Norm         RMS  
	----     ---------------------     --------
	   0        -0.004888301611443    0.000e+00
	   1        -0.001961537707344    3.482e-02
	   2        -0.001416940446248    9.649e-03
	   3        -0.000951877358091    4.971e-03
	   4        -0.000876643421866    1.830e-03
	   5        -0.000870119492573    9.719e-04
	   6        -0.000886741396251    7.319e-04
	   7        -0.000906143210091    5.331e-04
	   8        -0.000920404577626    2.776e-04
	   9        -0.000928144599823    1.720e-04
	  10        -0.000941620192273    1.170e-04
	  11        -0.000952650131531    6.296e-05
	  12        -0.000955615222338    2.602e-05
	  13        -0.000956395956730    1.526e-05
	  14        -0.000956911692417    9.498e-06
	  15        -0.000957009290266    4.871e-06
	  16        -0.000957215543967    2.678e-06
	  17        -0.000957282872205    1.651e-06
	  18        -0.000957386365751    1.002e-06
	  19        -0.000957409501869    2.884e-07
	  20        -0.000957412092059    1.129e-07
	  21        -0.000957412538622    5.002e-08

	Initial  <L|R>  =        0.9867899275
	Normalizing L...
	L0 * R0 =        0.0000000000
	L1 * R1 =        0.8467933604
	L2 * R2 =        0.1532066396
	 <L|R>  =        1.0000000000
	Pseudoenergy or Norm of normalized L =   -0.000970229338541

	Largest LIA Amplitudes:
	          2   0         0.5526567864
	          4   7         0.1248478420
	          2   2         0.0655337976
	          2   1        -0.0580717620
	          1   0         0.0355850440
	          4   9         0.0353698502
	          2   3        -0.0261876009
	          1   2         0.0192806578
	          1   1        -0.0181767513
	          1   3        -0.0059267300

	Largest Lia Amplitudes:
	          2   0        -0.6948937295
	          4   7        -0.1123448005
	          2   2        -0.0709179178
	          2   1         0.0576016563
	          4   9        -0.0301583421
	          2   3         0.0277137298
	          1   1         0.0186888032
	          1   0        -0.0177316521
	          1   2        -0.0169132733
	          1   3         0.0040298402

	Largest LIJAB Amplitudes:
	  4   2   7   0        -0.0489011879
	  3   2   5   0         0.0350484355
	  4   2   9   0        -0.0288351774
	  2   1   2   0         0.0195253413
	  2   1   3   0        -0.0130899954
	  4   2   7   1         0.0082033178
	  4   2   8   0         0.0078506358
	  4   2   7   2         0.0078214983
	  4   2   8   1         0.0072721783
	  4   3   7   5         0.0065705516

	Largest Lijab Amplitudes:
	  4   2   7   0         0.0368479346
	  4   2   9   0         0.0223905115
	  2   1   6   5         0.0161650558
	  4   2   7   2        -0.0151870132
	  2   1   3   0         0.0130678547
	  2   1   2   0        -0.0105819274
	  2   1   1   0         0.0104372767
	  4   2   8   1        -0.0097064866
	  4   1   9   0        -0.0082260921
	  4   1   7   0        -0.0078120044

	Largest LIjAb Amplitudes:
	  3   2   0   6         0.3369869598
	  4   2   7   0         0.0862628489
	  3   4   7   6         0.0814415500
	  2   2   1   0        -0.0654739765
	  2   2   0   1         0.0494008672
	  2   4   0   7        -0.0485150715
	  3   2   2   6         0.0475875271
	  4   2   9   0         0.0470803287
	  3   2   5   0        -0.0443886699
	  3   2   1   6        -0.0388528262

	Iterations converged.


*** tstop() called on lawn-143-215-103-161.lawn.gatech.edu at Fri Apr 27 14:20:03 2012
Module time:
	user time   =       0.17 seconds =       0.00 minutes
	system time =       0.13 seconds =       0.00 minutes
	total time  =          0 seconds =       0.00 minutes
Total time:
	user time   =       0.99 seconds =       0.02 minutes
	system time =       0.89 seconds =       0.01 minutes
	total time  =          2 seconds =       0.03 minutes

*** tstart() called on lawn-143-215-103-161.lawn.gatech.edu
*** at Fri Apr 27 14:20:03 2012


			**************************
			*                        *
			*        CCDENSITY       *
			*                        *
			**************************


	Input parameters:
	-----------------
	Wave function    = EOM_CCSD
	Reference wfn    =  ROHF
	Dertype          = 1
	Tolerance        = 1.0e-14
	Cache Level      = 2
	AO Basis         = No
	OPDM Only        = No
	Relax OPDM       = Yes
	Compute Xi       = Yes
	Use Zeta         = No
	Xi connected     = Yes

	Nuclear Rep. energy (chkpt)   =    8.647166888151858
	SCF energy          (chkpt)   =  -75.596672115023679
	Reference energy    (file100) =  -75.596672115023708
	CCSD energy         (CC_INFO) =   -0.117138982680376
	Total CCSD energy   (CC_INFO) =  -75.713811097704081
	Number of States = 1

	Ground?  State     EOM Energy       R0
	   No     1 A1    0.4504621493   0.00779843

energy:    0.4504621493
XIA amplitudes: norm=   0.181053810516346 dot=   0.032780482302489
X1 amplitudes:  norm=   0.222868631574455 dot=   0.049670426939870
Norm of Xi:    1.574310344548753

*** tstop() called on lawn-143-215-103-161.lawn.gatech.edu at Fri Apr 27 14:20:04 2012
Module time:
	user time   =       0.04 seconds =       0.00 minutes
	system time =       0.04 seconds =       0.00 minutes
	total time  =          1 seconds =       0.02 minutes
Total time:
	user time   =       1.03 seconds =       0.02 minutes
	system time =       0.93 seconds =       0.02 minutes
	total time  =          3 seconds =       0.05 minutes

*** tstart() called on lawn-143-215-103-161.lawn.gatech.edu
*** at Fri Apr 27 14:20:04 2012


			**************************
			*        CCLAMBDA        *
			**************************


	Nuclear Rep. energy (chkpt)   =    8.647166888151858
	Reference           (chkpt)   = 1
	SCF energy          (chkpt)   =  -75.596672115023679
	Reference energy    (CC_INFO) =  -75.596672115023708
	CCSD energy         (CC_INFO) =   -0.117138982680376
	Total CCSD energy   (CC_INFO) =  -75.713811097704081
	Irrep of Zeta       (CC_INFO) = 0

	Input parameters:
	-----------------
	Maxiter       =      50
	Convergence   = 1.0e-07
	Restart       =     No
	Cache Level   =     2
	Model III     =     No
	DIIS          =     Yes
	AO Basis      =     No
	ABCD            =     NEW
	Local CC        =     No
	Paramaters for left-handed eigenvectors:
	    Irr   Root  Ground-State?    EOM energy        R0
	  1   0     1         No       0.0000000000   0.0000000000
	Labels for eigenvector 1:
	ZIA, Zia, ZIJAB, Zijab, ZIjAb, 2ZIjAb - ZIjbA
	Deleting old CC_LAMBDA data.
	Symmetry of left-hand state: B1
	Symmetry of left-hand eigenvector: A1

	          Solving Lambda Equations
	          ------------------------
	Iter     PseudoEnergy or Norm         RMS  
	----     ---------------------     --------
	   0         0.155621412979954    5.002e-08
	   1         0.170528595074417    4.002e-02
	   2         0.179086750199650    1.434e-02
	   3         0.182385929825893    4.643e-03
	   4         0.183067997058889    1.576e-03
	   5         0.183220179137928    6.766e-04
	   6         0.183259940217493    2.693e-04
	   7         0.183257244957028    7.628e-05
	   8         0.183256937454926    2.093e-05
	   9         0.183256741848065    6.870e-06
	  10         0.183256937035800    2.188e-06
	  11         0.183256974450541    7.315e-07
	  12         0.183256978505858    2.114e-07
	  13         0.183256975730094    4.973e-08

	Largest LIA Amplitudes:
	          4   7        -0.0811192598
	          2   1         0.0563049598
	          4   9        -0.0446889505
	          3   5         0.0364884995
	          1   2        -0.0213729686
	          1   3         0.0174348090
	          4   8         0.0143636911
	          1   0        -0.0098489750
	          2   3        -0.0082785233
	          2   2        -0.0066499198

	Largest Lia Amplitudes:
	          4   7        -0.0486750300
	          4   9        -0.0264899058
	          2   1         0.0259234062
	          1   3         0.0113857097
	          4   8         0.0070404927
	          1   1         0.0068309257
	          2   0         0.0067741840
	          1   2        -0.0065934850
	          2   2        -0.0020183419
	          1   0        -0.0017861794

	Largest LIJAB Amplitudes:
	  4   2   7   0         0.0186462524
	  4   3   8   5        -0.0107430729
	  4   3   9   5         0.0103152926
	  4   2   9   0         0.0098110435
	  4   3   7   5         0.0088871148
	  4   2   7   2         0.0080306391
	  3   1   5   3        -0.0079358552
	  3   2   5   1        -0.0076942287
	  3   1   5   0         0.0063864418
	  4   2   8   1        -0.0057716677

	Largest Lijab Amplitudes:
	  4   2   7   0         0.0231976065
	  4   2   9   0         0.0134440513
	  4   2   7   2         0.0074591243
	  4   1   9   3         0.0058305932
	  4   1   7   3         0.0052807115
	  4   2   7   1        -0.0051863237
	  2   1   2   0        -0.0047743716
	  2   1   1   0         0.0045813536
	  4   1   8   3        -0.0045165462
	  4   1   8   2         0.0041175610

	Largest LIjAb Amplitudes:
	  4   4   7   7        -0.0430201198
	  4   4   9   7        -0.0316175566
	  4   4   7   9        -0.0306564468
	  4   4   9   9        -0.0276298205
	  3   2   1   6        -0.0264928680
	  3   1   2   6         0.0196907973
	  3   4   5   7         0.0172473713
	  4   4   8   8        -0.0162117365
	  2   4   1   7         0.0154786837
	  3   4   5   9         0.0154175966

	Iterations converged.

Norm of Zeta:    0.183256975730094

*** tstop() called on lawn-143-215-103-161.lawn.gatech.edu at Fri Apr 27 14:20:04 2012
Module time:
	user time   =       0.11 seconds =       0.00 minutes
	system time =       0.09 seconds =       0.00 minutes
	total time  =          0 seconds =       0.00 minutes
Total time:
	user time   =       1.14 seconds =       0.02 minutes
	system time =       1.02 seconds =       0.02 minutes
	total time  =          3 seconds =       0.05 minutes

*** tstart() called on lawn-143-215-103-161.lawn.gatech.edu
*** at Fri Apr 27 14:20:04 2012


			**************************
			*                        *
			*        CCDENSITY       *
			*                        *
			**************************


	Input parameters:
	-----------------
	Wave function    = EOM_CCSD
	Reference wfn    =  ROHF
	Dertype          = 1
	Tolerance        = 1.0e-14
	Cache Level      = 2
	AO Basis         = No
	OPDM Only        = No
	Relax OPDM       = Yes
	Compute Xi       = No
	Use Zeta         = Yes
	Xi connected     = Yes

	Nuclear Rep. energy (chkpt)   =    8.647166888151858
	SCF energy          (chkpt)   =  -75.596672115023679
	Reference energy    (file100) =  -75.596672115023708
	CCSD energy         (CC_INFO) =   -0.117138982680376
	Total CCSD energy   (CC_INFO) =  -75.713811097704081
	Number of States = 1

	Ground?  State     EOM Energy       R0
	   No     1 A1    0.4504621493   0.00779843

	Energies re-computed from CC density:
	-------------------------------------
	One-electron energy        =    1.162676356850739
	IJKL energy                =    0.121996921434125
	IJKA energy                =   -0.108679006612354
	IJAB energy                =   -0.130612754671836
	IBJA energy                =   -0.779107571519589
	CIAB energy                =   -0.016315104478790
	ABCD energy                =    0.083364328790518
	Total two-electron energy  =   -0.829353187057926
	Total EOM CCSD correlation energy        =    0.333323169792814
	CCSD correlation + EOM excitation energy =    0.333323166628270
	Total EOM CCSD energy                    =  -75.263348945230888

	Virial Theorem Data:
	--------------------
	Kinetic energy (ref)   =   75.635518029068180
	Kinetic energy (corr)  =    0.345597666674765
	Kinetic energy (total) =   75.981115695742943
	-V/T (ref)             =    1.999486406452197
	-V/T (corr)            =    1.338946104027414
	-V/T (total)           =    1.996481960081907

	Energies re-computed from Fock-adjusted CC density:
	---------------------------------------------------
	One-electron energy        =    1.842115266263665
	IJKL energy                =   -7.068706991323454
	IJKA energy                =    0.874779325684754
	IJAB energy                =   -0.130612754671836
	IBJA energy                =    4.748699099527142
	CIAB energy                =   -0.016315104478790
	ABCD energy                =    0.083364328790518
	Total two-electron energy  =   -1.508792096471666
	Total EOM CCSD correlation energy        =    0.333323169792000
	CCSD correlation + EOM excitation energy =    0.333323166628270
	Total EOM CCSD energy                    =  -75.263348945231712

	Energies re-computed from Mulliken density:
	-------------------------------------------
	One-electron energy        =    1.842115266263665
	IJKL energy                =   -7.068706991323454
	IJKA energy                =    0.874779325684754
	IJAB energy                =   -0.328667709284578
	IBJA energy                =    4.946754054139884
	CIAB energy                =   -0.016315104478790
	ABCD energy                =    0.083364328790518
	Total two-electron energy  =   -1.508792096471666
	Total EOM CCSD correlation energy        =    0.333323169792000
	CCSD correlation + EOM excitation energy =    0.333323166628270
	Total EOM CCSD energy                    =  -75.263348945231712

*** tstop() called on lawn-143-215-103-161.lawn.gatech.edu at Fri Apr 27 14:20:04 2012
Module time:
	user time   =       0.10 seconds =       0.00 minutes
	system time =       0.12 seconds =       0.00 minutes
	total time  =          0 seconds =       0.00 minutes
Total time:
	user time   =       1.24 seconds =       0.02 minutes
	system time =       1.14 seconds =       0.02 minutes
	total time  =          3 seconds =       0.05 minutes

*** tstart() called on lawn-143-215-103-161.lawn.gatech.edu
*** at Fri Apr 27 14:20:04 2012

 DERIV: Derivative code.
   by Justin Turney

  Cartesian Displacement SALCs
  By SALC:
  Number of SALCs: 3, nirreps: 1
  Project out translations: False
  Project out rotations: False
	irrep = 0, ncomponent = 2
		0: atom 0, direction y, coef 0.707107
		1: atom 2, direction y, coef -0.707107
	irrep = 0, ncomponent = 2
		0: atom 0, direction z, coef 0.707107
		1: atom 2, direction z, coef 0.707107
	irrep = 0, ncomponent = 1
		0: atom 1, direction z, coef 1.000000

  By Atomic Center:
  Number of atomic centers: 3
   Atomic Center 0:
	x component, size = 0
	y component, size = 1
		0: salc 0, irrep 0, coef 0.707107
	z component, size = 1
		0: salc 1, irrep 0, coef 0.707107
   Atomic Center 1:
	x component, size = 0
	y component, size = 0
	z component, size = 1
		0: salc 2, irrep 0, coef 1.000000
   Atomic Center 2:
	x component, size = 0
	y component, size = 1
		0: salc 0, irrep 0, coef -0.707107
	z component, size = 1
		0: salc 1, irrep 0, coef 0.707107

    Molecular point group: c2v

    Geometry (in Bohr), charge = 1, multiplicity = 2:

       Center              X                  Y                   Z       
    ------------   -----------------  -----------------  -----------------
           H          0.000000000000    -1.443627918148     1.134274838578
           O         -0.000000000000     0.000000000000    -0.142939253226
           H         -0.000000000000     1.443627918148     1.134274838578

	Presorting MO-basis TPDM.
	Sorting File: MO TPDM (AA|AA) nbuckets = 1
	Starting first half-transformation.
	Sorting half-transformed TPDM.
	First half integral transformation complete.


  -Nuclear Repulsion Energy 1st Derivatives:
     Atom            X                  Y                   Z
    ------   -----------------  -----------------  -----------------
       1        0.000000000000     1.732636842258    -1.426777654799
       2        0.000000000000     0.000000000000     2.853555309597
       3       -0.000000000000    -1.732636842258    -1.426777654799


  -One-electron contribution to gradient:
     Atom            X                  Y                   Z
    ------   -----------------  -----------------  -----------------
       1        0.000000000000    -2.315788215188     2.192980101486
       2        0.000000000000     0.000000000000    -4.385960202971
       3        0.000000000000     2.315788215188     2.192980101486


  -Lagrangian contribution to gradient:
     Atom            X                  Y                   Z
    ------   -----------------  -----------------  -----------------
       1        0.000000000000     0.162284269746    -0.186376614979
       2        0.000000000000     0.000000000000     0.372753229957
       3        0.000000000000    -0.162284269746    -0.186376614979


  -Two-electron contribution to gradient:
     Atom            X                  Y                   Z
    ------   -----------------  -----------------  -----------------
       1        0.000000000000     0.603371173786    -0.670456721195
       2        0.000000000000     0.000000000000     1.340913442390
       3        0.000000000000    -0.603371173786    -0.670456721195


  -Total gradient:
     Atom            X                  Y                   Z
    ------   -----------------  -----------------  -----------------
       1        0.000000000000     0.182504070601    -0.090630889487
       2        0.000000000000     0.000000000000     0.181261778974
       3       -0.000000000000    -0.182504070601    -0.090630889487


*** tstop() called on lawn-143-215-103-161.lawn.gatech.edu at Fri Apr 27 14:20:04 2012
Module time:
	user time   =       0.06 seconds =       0.00 minutes
	system time =       0.02 seconds =       0.00 minutes
	total time  =          0 seconds =       0.00 minutes
Total time:
	user time   =       1.30 seconds =       0.02 minutes
	system time =       1.16 seconds =       0.02 minutes
	total time  =          3 seconds =       0.05 minutes

-------------------------------------------------------------

  Using finite-differences of energies to determine gradients (fd_geoms_1_0).
	Generating geometries for use with 3-point formula.
	Displacement size will be 5.00e-03.
	Number of atoms is 3.
	Number of symmetric SALC's is 2.
	Number of displacements (including reference) is 5.

-------------------------------------------------------------

  //>>>>>>>>>>>>>>>>>>>>>>>>>>>>>>>>>>>//
  //    Loading displacement 1 of 5    //
  //<<<<<<<<<<<<<<<<<<<<<<<<<<<<<<<<<<<//

*** tstart() called on lawn-143-215-103-161.lawn.gatech.edu
*** at Fri Apr 27 14:20:04 2012


         ---------------------------------------------------------
                                   SCF
            by Justin Turney, Rob Parrish, and Andy Simmonett
                             ROHF Reference
                        1 Threads,    250 MiB Core
         ---------------------------------------------------------

  ==> Geometry <==

    Molecular point group: c2v

    Geometry (in Bohr), charge = 1, multiplicity = 2:

       Center              X                  Y                   Z       
    ------------   -----------------  -----------------  -----------------
           H          0.000000000000    -1.447149699877     1.134274838578
           O          0.000000000000     0.000000000000    -0.142939253226
           H         -0.000000000000     1.447149699877     1.134274838578

  Running in c2v symmetry.

  Nuclear repulsion =    8.634974470989285

  Charge       = 1
  Multiplicity = 2
  Electrons    = 9
  Nalpha       = 5
  Nbeta        = 4

  ==> Algorithm <==

  SCF Algorithm Type is PK.
  DIIS enabled.
  MOM disabled.
  Fractional occupation disabled.
  Guess Type is CORE.
  Energy threshold   = 1.00e-08
  Density threshold  = 1.00e-08
  Integral threshold = 0.00e+00

  ==> Primary Basis <==

  Basis Set: DZ
    Number of shells: 10
    Number of basis function: 14
    Number of Cartesian functions: 14
    Spherical Harmonics?: true
    Max angular momentum: 1

  ==> Pre-Iterations <==

  Minimum eigenvalue in the overlap matrix is 6.0948076218E-02.
  Using Symmetric Orthogonalization.
  SCF Guess: Core (One-Electron) Hamiltonian.

  Initial ROHF energy:   -52.79086804834569

   -------------------------------------------------------
    Irrep   Nso     Nmo     Nalpha   Nbeta   Ndocc  Nsocc
   -------------------------------------------------------
     A1         8       8       3       3       3       0
     A2         0       0       0       0       0       0
     B1         2       2       1       0       0       1
     B2         4       4       1       1       1       0
   -------------------------------------------------------
    Total      14      14       5       4       4       1
   -------------------------------------------------------

  ==> Integral Setup <==

 MINTS: Wrapper to libmints.
   by Justin Turney

   Calculation information:
      Number of atoms:                   3
      Number of AO shells:              10
      Number of SO shells:               8
      Number of primitives:             22
      Number of atomic orbitals:        14
      Number of basis functions:        14

      Number of irreps:                  4
      Number of functions per irrep: [   8    0    2    4 ]

      Overlap, kinetic, potential, dipole, and quadrupole integrals
        stored in file 35.

      Computing two-electron integrals...done
      Computed 1709 non-zero two-electron integrals.
        Stored in file 33.

  ==> Iterations <==

                        Total Energy        Delta E     Density RMS

   @ROHF iter   1:   -71.79523076159865   -1.90044e+01   4.04070e-03 
	Occupation by irrep:
	         A1    A2    B1    B2 
	DOCC [     3,    0,    0,    1 ]
	SOCC [     1,    0,    0,    0 ]

   @ROHF iter   2:   -73.51093706451789   -1.71571e+00   8.44919e-01 DIIS
	Occupation by irrep:
	         A1    A2    B1    B2 
	DOCC [     3,    0,    0,    1 ]
	SOCC [     0,    0,    1,    0 ]

   @ROHF iter   3:   -75.41852834481833   -1.90759e+00   6.41864e-01 DIIS
   @ROHF iter   4:   -75.59284653489487   -1.74318e-01   6.54221e-02 DIIS
   @ROHF iter   5:   -75.59660576387313   -3.75923e-03   9.94061e-03 DIIS
   @ROHF iter   6:   -75.59673227061600   -1.26507e-04   2.33301e-03 DIIS
   @ROHF iter   7:   -75.59673275553209   -4.84916e-07   1.25221e-04 DIIS
   @ROHF iter   8:   -75.59673279243052   -3.68984e-08   4.22532e-05 DIIS
   @ROHF iter   9:   -75.59673279582080   -3.39028e-09   1.46634e-05 DIIS
   @ROHF iter  10:   -75.59673279587523   -5.44276e-11   1.95168e-06 DIIS
   @ROHF iter  11:   -75.59673279587599   -7.67386e-13   2.30154e-07 DIIS
   @ROHF iter  12:   -75.59673279587605   -5.68434e-14   1.75783e-08 DIIS

  ==> Post-Iterations <==

	Orbital Energies (a.u.)
	-----------------------

	Doubly Occupied:                                                      

	   1A1   -21.103823     2A1    -1.812332     1B2    -1.146358  
	   3A1    -1.051235  

	Singly Occupied:                                                      

	   1B1    -0.689705  

	Virtual:                                                              

	   4A1    -0.142199     2B2    -0.064703     2B1     0.460664  
	   5A1     0.502268     3B2     0.546306     4B2     0.755942  
	   6A1     0.781311     7A1     1.243377     8A1    42.782104  

	Final Occupation by Irrep:
	         A1    A2    B1    B2 
	DOCC [     3,    0,    0,    1 ]
	SOCC [     0,    0,    1,    0 ]

  Energy converged.

  @ROHF Final Energy:   -75.59673279587605

   => Energetics <=

    Nuclear Repulsion Energy =          8.6349744709892846
    One-Electron Energy =            -117.1216293372436041
    Two-Electron Energy =              32.8899220703782760
    DFT Functional Energy =             0.0000000000000000
    Empirical Dispersion Energy =       0.0000000000000000
    Total Energy =                    -75.5967327958760507

  ==> Properties <==

  Nuclear Dipole Moment: (a.u.)
     X:     0.0000      Y:     0.0000      Z:     1.1250

  Electronic Dipole Moment: (a.u.)
     X:     0.0000      Y:     0.0000      Z:     0.2143

  Dipole Moment: (a.u.)
     X:     0.0000      Y:     0.0000      Z:     1.3394     Total:     1.3394

  Dipole Moment: (Debye)
     X:     0.0000      Y:     0.0000      Z:     3.4043     Total:     3.4043


  Saving occupied orbitals to File 180.

*** tstop() called on lawn-143-215-103-161.lawn.gatech.edu at Fri Apr 27 14:20:04 2012
Module time:
	user time   =       0.05 seconds =       0.00 minutes
	system time =       0.00 seconds =       0.00 minutes
	total time  =          0 seconds =       0.00 minutes
Total time:
	user time   =       1.35 seconds =       0.02 minutes
	system time =       1.16 seconds =       0.02 minutes
	total time  =          3 seconds =       0.05 minutes

*** tstart() called on lawn-143-215-103-161.lawn.gatech.edu
*** at Fri Apr 27 14:20:04 2012


	**************************************************
	* TRANSQT2: Program to transform integrals from  *
	*           the SO basis to the MO basis.        *
	*                                                *
	*            Daniel, David, & Justin             *
	**************************************************


	Input parameters:
	-----------------
	Wave function   =	CCSD
	Backtransform   =	No
	Print Level     =	1
	Print TEIs      =	No
	Reference wfn   =	ROHF
	Derivative      =	None
	Delete TEI File =	Yes
	Memory (Mbytes) =	250.0
	Cache Level     =	2
	Cache Type      =	LRU
	Chkpt Parameters:
	--------------------
	Number of irreps     = 4
	Number of SOs        = 14
	Number of MOs        = 14
	Number of active MOs = 14

	Label	# SOs	# FZDC	# DOCC	# SOCC	# VIRT	# FZVR
	-----	-----	------	------	------	------	------
	 A1	   8	    0	    3	    0	    5	    0
	 A2	   0	    0	    0	    0	    0	    0
	 B1	   2	    0	    0	    1	    1	    0
	 B2	   4	    0	    1	    0	    3	    0

	Nuclear Rep. energy (chkpt) =      8.63497447098928
	SCF energy          (chkpt) =    -75.59673279587605

	Presorting SO-basis two-electron integrals.
	Sorting File: SO Ints (pq,rs) nbuckets = 1
	Frozen-core energy =    0.000000000000000
	Starting first half-transformation.
	Sorting half-transformed integrals.
	Starting second half-transformation.
	Two-electron integral transformation complete.

*** tstop() called on lawn-143-215-103-161.lawn.gatech.edu at Fri Apr 27 14:20:05 2012
Module time:
	user time   =       0.00 seconds =       0.00 minutes
	system time =       0.01 seconds =       0.00 minutes
	total time  =          1 seconds =       0.02 minutes
Total time:
	user time   =       1.35 seconds =       0.02 minutes
	system time =       1.17 seconds =       0.02 minutes
	total time  =          4 seconds =       0.07 minutes

*** tstart() called on lawn-143-215-103-161.lawn.gatech.edu
*** at Fri Apr 27 14:20:05 2012


			**************************
			*                        *
			*         CCSORT         *
			*                        *
			**************************


	Input parameters:
	-----------------
	Wave function   =	CCSD
	Reference wfn   =	ROHF
	Derivative      =	None
	Memory (Mbytes) =	250.0
	AO Basis        =	NONE
	Make (ab|cd)    =	True
	Make unpacked (ab|cd) =	True
	Cache Level     =	2
	Cache Type      =	LRU
	Local CC        =     No


	Chkpt Parameters:
	--------------------
	Number of irreps     = 4
	Number of MOs        = 14
	Number of active MOs = 14

	Label	# MOs	# FZDC	# DOCC	# SOCC	# VIRT	# FZVR
	-----	-----	------	------	------	------	------
	 A1	   8	    0	    3	    0	    5	    0
	 A2	   0	    0	    0	    0	    0	    0
	 B1	   2	    0	    0	    1	    1	    0
	 B2	   4	    0	    1	    0	    3	    0

	Nuclear Rep. energy (chkpt) =      8.63497447098928
	SCF energy          (chkpt) =    -75.59673279587605

	Size of irrep 0 of <ab|cd> integrals:      0.001 (MW) /      0.012 (MB)
	Size of irrep 1 of <ab|cd> integrals:      0.000 (MW) /      0.001 (MB)
	Size of irrep 2 of <ab|cd> integrals:      0.000 (MW) /      0.003 (MB)
	Size of irrep 3 of <ab|cd> integrals:      0.001 (MW) /      0.007 (MB)
	Total:                                     0.003 (MW) /      0.023 (MB)

	Size of irrep 0 of <ia|bc> integrals:      0.001 (MW) /      0.006 (MB)
	Size of irrep 1 of <ia|bc> integrals:      0.000 (MW) /      0.000 (MB)
	Size of irrep 2 of <ia|bc> integrals:      0.000 (MW) /      0.002 (MB)
	Size of irrep 3 of <ia|bc> integrals:      0.000 (MW) /      0.003 (MB)
	Total:                                     0.001 (MW) /      0.012 (MB)

	Size of irrep 0 of tIjAb amplitudes:       0.000 (MW) /      0.003 (MB)
	Size of irrep 1 of tIjAb amplitudes:       0.000 (MW) /      0.000 (MB)
	Size of irrep 2 of tIjAb amplitudes:       0.000 (MW) /      0.001 (MB)
	Size of irrep 3 of tIjAb amplitudes:       0.000 (MW) /      0.001 (MB)
	Total:                                     0.001 (MW) /      0.006 (MB)


	Sorting File: A <ij|kl> nbuckets = 1
	Sorting File: B <ab|cd> nbuckets = 1
	Sorting File: C <ia|jb> nbuckets = 1
	Sorting File: D <ij|ab> nbuckets = 1
	Sorting File: E <ai|jk> nbuckets = 1
	Sorting File: F <ia|bc> nbuckets = 1
	Sorting File: F <ai|bc> nbuckets = 1
	One-electron energy          =   -117.12162933154714
	Two-electron (AA) energy     =     15.40996453542431
	Two-electron (BB) energy     =      9.33304112142219
	Two-electron (AB) energy     =     20.51841923625859
	Two-electron energy          =     32.88992206468184
	Frozen-core energy (transqt) =      0.00000000000000
	Reference energy             =    -75.59673279587602

*** tstop() called on lawn-143-215-103-161.lawn.gatech.edu at Fri Apr 27 14:20:05 2012
Module time:
	user time   =       0.02 seconds =       0.00 minutes
	system time =       0.04 seconds =       0.00 minutes
	total time  =          0 seconds =       0.00 minutes
Total time:
	user time   =       1.37 seconds =       0.02 minutes
	system time =       1.21 seconds =       0.02 minutes
	total time  =          4 seconds =       0.07 minutes

*** tstart() called on lawn-143-215-103-161.lawn.gatech.edu
*** at Fri Apr 27 14:20:05 2012

			**************************
			*                        *
			*        CCENERGY        *
			*                        *
			**************************

	Nuclear Rep. energy (chkpt)   =    8.634974470989285
	SCF energy          (chkpt)   =  -75.596732795876051
	Reference energy    (file100) =  -75.596732795876022

	Input parameters:
	-----------------
	Wave function   =     CCSD
	Reference wfn   =    ROHF
	Memory (Mbytes) =     250.0
	Maxiter         =     50
	Convergence     =     1.0e-07
	Restart         =     No
	DIIS            =     Yes
	AO Basis        =     NONE
	ABCD            =     NEW
	Cache Level     =     2
	Cache Type      =     LOW
	Print Level     =     1
	Num. of threads =     1
	# Amps to Print =     10
	Print MP2 Amps? =     No
	Analyze T2 Amps =     No
	Print Pair Ener =     No
	Local CC        =     No
	SCS-MP2         =     False
	SCSN-MP2        =     False
	SCS-CCSD        =     False

	            Solving CC Amplitude Equations
	            ------------------------------
  Iter             Energy              RMS        T1Diag      D1Diag    New D1Diag
  ----     ---------------------    ---------   ----------  ----------  ----------
     0        -0.103668772656470    5.580e-08    0.000154    0.000453    0.000453
     1        -0.111864810997070    4.008e-02    0.006357    0.011895    0.011895
     2        -0.116160666533465    1.506e-02    0.007729    0.014669    0.014669
     3        -0.117121767928297    5.681e-03    0.008345    0.016191    0.016191
     4        -0.117206307235194    2.380e-03    0.008292    0.016209    0.016209
     5        -0.117234789862796    8.911e-04    0.008286    0.016181    0.016181
     6        -0.117246299908953    2.877e-04    0.008287    0.016177    0.016177
     7        -0.117247331098654    9.321e-05    0.008287    0.016181    0.016181
     8        -0.117247907684115    2.801e-05    0.008287    0.016184    0.016184
     9        -0.117247842990738    9.032e-06    0.008288    0.016184    0.016184
    10        -0.117247811084971    3.154e-06    0.008288    0.016184    0.016184
    11        -0.117247798366927    8.357e-07    0.008288    0.016183    0.016183
    12        -0.117247774021205    2.273e-07    0.008288    0.016183    0.016183
    13        -0.117247770422221    5.662e-08    0.008288    0.016183    0.016183

	Iterations converged.


	Largest TIA Amplitudes:
	          3   5        -0.0113963178
	          1   0        -0.0103004931
	          1   2        -0.0094665272
	          2   0         0.0083418904
	          4   8         0.0071451010
	          4   9        -0.0070666638
	          1   3         0.0035220946
	          2   1         0.0031311999
	          1   1         0.0027445594
	          2   3         0.0024767576

	Largest Tia Amplitudes:
	          4   7         0.0321919684
	          1   0         0.0210565866
	          2   0         0.0173385457
	          2   1        -0.0168041337
	          1   2         0.0147730602
	          4   9         0.0101578577
	          2   3         0.0063963189
	          1   1         0.0051148133
	          4   8         0.0039819700
	          2   2         0.0021090398

	Largest TIJAB Amplitudes:
	  3   2   5   1        -0.0233464104
	  4   3   7   5         0.0195575867
	  4   2   7   1         0.0177534430
	  4   3   9   5         0.0146863843
	  4   2   9   1         0.0134561197
	  4   3   8   5        -0.0129394605
	  3   2   5   0         0.0121240131
	  4   2   8   1        -0.0113417703
	  3   1   5   0         0.0111374461
	  3   1   5   3        -0.0100918261

	Largest Tijab Amplitudes:
	  4   2   7   1         0.0181562337
	  4   2   9   1         0.0129896255
	  4   2   8   1        -0.0109262862
	  2   1   1   0         0.0091953971
	  4   2   7   0        -0.0090646047
	  2   1   3   1         0.0085045879
	  4   1   8   0         0.0073358289
	  4   1   7   0        -0.0071286294
	  4   1   7   3         0.0064533440
	  4   2   8   0         0.0063322515

	Largest TIjAb Amplitudes:
	  4   4   7   7        -0.0527739489
	  2   2   1   1        -0.0435877205
	  4   4   9   7        -0.0353093617
	  4   4   7   9        -0.0348058339
	  3   4   7   6         0.0324720117
	  3   2   5   1        -0.0313859796
	  3   1   0   6         0.0302442380
	  4   4   9   9        -0.0299419593
	  2   4   1   7         0.0272298735
	  4   2   7   1         0.0268623789

	SCF energy       (chkpt)              =  -75.596732795876051
	Reference energy (file100)            =  -75.596732795876022

	Opposite-spin CCSD correlation energy =    0.000000000000000
	Same-spin CCSD correlation energy     =    0.000000000000000
	CCSD correlation energy               =   -0.117247770422221
      * CCSD total energy                     =  -75.713980566298247


*** tstop() called on lawn-143-215-103-161.lawn.gatech.edu at Fri Apr 27 14:20:07 2012
Module time:
	user time   =       0.35 seconds =       0.01 minutes
	system time =       0.39 seconds =       0.01 minutes
	total time  =          2 seconds =       0.03 minutes
Total time:
	user time   =       1.73 seconds =       0.03 minutes
	system time =       1.60 seconds =       0.03 minutes
	total time  =          6 seconds =       0.10 minutes

*** tstart() called on lawn-143-215-103-161.lawn.gatech.edu
*** at Fri Apr 27 14:20:07 2012


			**************************
			*                        *
			*         CCHBAR         *
			*                        *
			**************************


*** tstop() called on lawn-143-215-103-161.lawn.gatech.edu at Fri Apr 27 14:20:07 2012
Module time:
	user time   =       0.04 seconds =       0.00 minutes
	system time =       0.04 seconds =       0.00 minutes
	total time  =          0 seconds =       0.00 minutes
Total time:
	user time   =       1.77 seconds =       0.03 minutes
	system time =       1.64 seconds =       0.03 minutes
	total time  =          6 seconds =       0.10 minutes

*** tstart() called on lawn-143-215-103-161.lawn.gatech.edu
*** at Fri Apr 27 14:20:07 2012


	**********************************************************
	*  CCEOM: An Equation of Motion Coupled Cluster Program  *
	**********************************************************

	Nuclear Rep. energy (chkpt)   =    8.634974470989285
	SCF energy          (chkpt)   =  -75.596732795876051
	Reference energy    (file100) =  -75.596732795876022
	CCSD energy         (file100) =   -0.117247770422221

	Input parameters:
	-----------------
	Reference wfn   =    ROHF
	Reference EOM wfn=    ROHF
	Memory (Mbytes) =  250.0
	ABCD            =     NEW
	Cache Level     =    2
	Cache Type      =     LRU
	Num. of threads =     1
	Local CC        =     No


	CCEOM parameters:
	-----------------
	States sought per irrep     = A1 0, A2 0, B1 1, B2 0,
	Max. number of iterations   =    80
	Vectors stored per root     =    12
	Print HbarSS iterations?    =     0
	Excitation range for HBarSS =     2
	Eigenvalue tolerance        = 1.0e-08
	Eigenvalue toleranceSS      = 1.0e-06
	Residual vector tolerance   = 1.0e-06
	Residual vector toleranceSS = 1.0e-06
	Complex tolerance           = 1.0e-12
	Root for properties         =     1
	Sym of state for properties =     A1
	Guess vectors taken from    = SINGLES
	Restart EOM CC3             = NO
	Collapse with last vector   = YES


Symmetry of ground state: B1
Symmetry of excited state: B1
Symmetry of right eigenvector: A1
Obtaining initial guess from singles-singles block of Hbar...Done.

Iter=1    L=1     Root    EOM Energy     Delta E   Res. Norm    Conv?
                     1   0.5232714256   5.23e-01    3.36e-01      N
Iter=2    L=2     Root    EOM Energy     Delta E   Res. Norm    Conv?
                     1   0.4667487566  -5.65e-02    8.10e-02      N
Iter=3    L=3     Root    EOM Energy     Delta E   Res. Norm    Conv?
                     1   0.4589915563  -7.76e-03    7.00e-02      N
Iter=4    L=4     Root    EOM Energy     Delta E   Res. Norm    Conv?
                     1   0.4531923384  -5.80e-03    6.33e-02      N
Iter=5    L=5     Root    EOM Energy     Delta E   Res. Norm    Conv?
                     1   0.4510164078  -2.18e-03    3.46e-02      N
Iter=6    L=6     Root    EOM Energy     Delta E   Res. Norm    Conv?
                     1   0.4501933046  -8.23e-04    2.32e-02      N
Iter=7    L=7     Root    EOM Energy     Delta E   Res. Norm    Conv?
                     1   0.4496333799  -5.60e-04    2.02e-02      N
Iter=8    L=8     Root    EOM Energy     Delta E   Res. Norm    Conv?
                     1   0.4494337337  -2.00e-04    1.09e-02      N
Iter=9    L=9     Root    EOM Energy     Delta E   Res. Norm    Conv?
                     1   0.4493910360  -4.27e-05    5.18e-03      N
Iter=10   L=10    Root    EOM Energy     Delta E   Res. Norm    Conv?
                     1   0.4493646552  -2.64e-05    4.27e-03      N
Iter=11   L=11    Root    EOM Energy     Delta E   Res. Norm    Conv?
                     1   0.4493546264  -1.00e-05    2.07e-03      N
Iter=12   L=12    Root    EOM Energy     Delta E   Res. Norm    Conv?
                     1   0.4493515537  -3.07e-06    7.75e-04      N
Iter=13   L=2     Root    EOM Energy     Delta E   Res. Norm    Conv?
                     1   0.4493515537   2.78e-16    7.75e-04      N
Iter=14   L=3     Root    EOM Energy     Delta E   Res. Norm    Conv?
                     1   0.4493515437  -9.99e-09    6.26e-04      N
Iter=15   L=4     Root    EOM Energy     Delta E   Res. Norm    Conv?
                     1   0.4493500623  -1.48e-06    4.07e-04      N
Iter=16   L=5     Root    EOM Energy     Delta E   Res. Norm    Conv?
                     1   0.4493497540  -3.08e-07    1.58e-04      N
Iter=17   L=6     Root    EOM Energy     Delta E   Res. Norm    Conv?
                     1   0.4493493600  -3.94e-07    6.76e-05      N
Iter=18   L=7     Root    EOM Energy     Delta E   Res. Norm    Conv?
                     1   0.4493493504  -9.61e-09    2.94e-05      N
Iter=19   L=8     Root    EOM Energy     Delta E   Res. Norm    Conv?
                     1   0.4493493627   1.23e-08    1.03e-05      N
Iter=20   L=9     Root    EOM Energy     Delta E   Res. Norm    Conv?
                     1   0.4493493575  -5.18e-09    4.39e-06      N
Iter=21   L=10    Root    EOM Energy     Delta E   Res. Norm    Conv?
                     1   0.4493493537  -3.78e-09    3.40e-06      N
Iter=22   L=11    Root    EOM Energy     Delta E   Res. Norm    Conv?
                     1   0.4493493535  -2.35e-10    3.52e-06      N
Iter=23   L=12    Root    EOM Energy     Delta E   Res. Norm    Conv?
                     1   0.4493493471  -6.37e-09    1.28e-06      N
Iter=24   L=2     Root    EOM Energy     Delta E   Res. Norm    Conv?
                     1   0.4493493471   1.12e-13    1.28e-06      N
Iter=25   L=3     Root    EOM Energy     Delta E   Res. Norm    Conv?
                     1   0.4493493469  -2.69e-10    3.35e-07      Y
Collapsing to only 1 vector(s).

Procedure converged for 1 root(s).
Energy written to chkpt:Etot  -75.2646312194
States per irrep written to chkpt.
<R|R> =   1.0000000000000002
EOM CCSD R0 for root 0 =   0.00786431145

Final Energetic Summary for Converged Roots of Irrep B1
                     Excitation Energy              Total Energy
                (eV)     (cm^-1)     (au)             (au)
EOM State 1     12.227    98620.8   0.4493493469   -75.264631219442

Largest components of excited wave function #1:
 RIA (libdpd indices) : (cscf notation)
         2 >   0      :       3a1 >    4a1 :    0.5430470335
         0 >   0      :       1b2 >    2b2 :    0.1264477173
         2 >   2      :       3a1 >    6a1 :    0.0658582139
         2 >   1      :       3a1 >    5a1 :   -0.0579701570
         1 >   0      :       2a1 >    4a1 :    0.0361613823
 Ria (libdpd indices) : (cscf notation)
         2 >   0      :       3a1 >    4a1 :   -0.7129084456
         0 >   0      :       1b2 >    2b2 :   -0.1122858697
         2 >   2      :       3a1 >    6a1 :   -0.0735730990
         2 >   1      :       3a1 >    5a1 :    0.0575577845
         0 >   2      :       1b2 >    4b2 :   -0.0298342214
 RIjAb (libdpd indices)     : (cscf notation)
        0   2 >   0   1     :    1b1    3a1 >    4a1    1b1 :    0.3213120573
        0   0 >   0   1     :    1b1    1b2 >    2b2    1b1 :    0.0851030642
        0   2 >   0   0     :    1b2    3a1 >    2b2    4a1 :    0.0696807933
        2   2 >   1   0     :    3a1    3a1 >    5a1    4a1 :   -0.0552757208
        2   0 >   0   0     :    3a1    1b2 >    4a1    2b2 :   -0.0542131238
 RIJAB (libdpd indices)     : (cscf notation)
        0   2 >   0   0     :    1b1    3a1 >    2b1    4a1 :    0.0281779812
        0   2 >   0   0     :    1b2    3a1 >    2b2    4a1 :   -0.0278094223
        0   2 >   2   0     :    1b2    3a1 >    4b2    4a1 :   -0.0165076946
        2   1 >   2   0     :    3a1    2a1 >    6a1    4a1 :    0.0109059387
        0   2 >   0   2     :    1b2    3a1 >    2b2    6a1 :    0.0097680556
 Rijab (libdpd indices)     : (cscf notation)
        0   2 >   0   0     :    1b2    3a1 >    2b2    4a1 :    0.0375692804
        0   2 >   2   0     :    1b2    3a1 >    4b2    4a1 :    0.0224054898
        2   1 >   1   0     :    3a1    2a1 >    1b1    2b1 :    0.0163182119
        2   1 >   2   0     :    3a1    2a1 >    6a1    4a1 :   -0.0153263533
        0   2 >   0   2     :    1b2    3a1 >    2b2    6a1 :   -0.0140933232

	Putting into environment energy for root of R irrep 1 and root 1.
	Putting into environment CURRENT ENERGY:              -75.2646312194

	Total # of sigma evaluations: 23

*** tstop() called on lawn-143-215-103-161.lawn.gatech.edu at Fri Apr 27 14:20:08 2012
Module time:
	user time   =       0.36 seconds =       0.01 minutes
	system time =       0.29 seconds =       0.00 minutes
	total time  =          1 seconds =       0.02 minutes
Total time:
	user time   =       2.13 seconds =       0.04 minutes
	system time =       1.93 seconds =       0.03 minutes
	total time  =          7 seconds =       0.12 minutes

  //>>>>>>>>>>>>>>>>>>>>>>>>>>>>>>>>>>>//
  //    Loading displacement 2 of 5    //
  //<<<<<<<<<<<<<<<<<<<<<<<<<<<<<<<<<<<//

*** tstart() called on lawn-143-215-103-161.lawn.gatech.edu
*** at Fri Apr 27 14:20:08 2012


         ---------------------------------------------------------
                                   SCF
            by Justin Turney, Rob Parrish, and Andy Simmonett
                             ROHF Reference
                        1 Threads,    250 MiB Core
         ---------------------------------------------------------

  ==> Geometry <==

    Molecular point group: c2v

    Geometry (in Bohr), charge = 1, multiplicity = 2:

       Center              X                  Y                   Z       
    ------------   -----------------  -----------------  -----------------
           H          0.000000000000    -1.440106136420     1.134274838578
           O          0.000000000000     0.000000000000    -0.142939253226
           H         -0.000000000000     1.440106136420     1.134274838578

  Running in c2v symmetry.

  Nuclear repulsion =    8.659382348734434

  Charge       = 1
  Multiplicity = 2
  Electrons    = 9
  Nalpha       = 5
  Nbeta        = 4

  ==> Algorithm <==

  SCF Algorithm Type is PK.
  DIIS enabled.
  MOM disabled.
  Fractional occupation disabled.
  Guess Type is CORE.
  Energy threshold   = 1.00e-08
  Density threshold  = 1.00e-08
  Integral threshold = 0.00e+00

  ==> Primary Basis <==

  Basis Set: DZ
    Number of shells: 10
    Number of basis function: 14
    Number of Cartesian functions: 14
    Spherical Harmonics?: true
    Max angular momentum: 1

  ==> Pre-Iterations <==

  Minimum eigenvalue in the overlap matrix is 6.0565460892E-02.
  Using Symmetric Orthogonalization.
  SCF Guess: Core (One-Electron) Hamiltonian.

  Initial ROHF energy:   -52.78267609820560

   -------------------------------------------------------
    Irrep   Nso     Nmo     Nalpha   Nbeta   Ndocc  Nsocc
   -------------------------------------------------------
     A1         8       8       3       3       3       0
     A2         0       0       0       0       0       0
     B1         2       2       1       0       0       1
     B2         4       4       1       1       1       0
   -------------------------------------------------------
    Total      14      14       5       4       4       1
   -------------------------------------------------------

  ==> Integral Setup <==

 MINTS: Wrapper to libmints.
   by Justin Turney

   Calculation information:
      Number of atoms:                   3
      Number of AO shells:              10
      Number of SO shells:               8
      Number of primitives:             22
      Number of atomic orbitals:        14
      Number of basis functions:        14

      Number of irreps:                  4
      Number of functions per irrep: [   8    0    2    4 ]

      Overlap, kinetic, potential, dipole, and quadrupole integrals
        stored in file 35.

      Computing two-electron integrals...done
      Computed 1709 non-zero two-electron integrals.
        Stored in file 33.

  ==> Iterations <==

                        Total Energy        Delta E     Density RMS

   @ROHF iter   1:   -71.79477646330341   -1.90121e+01   4.59306e-02 
	Occupation by irrep:
	         A1    A2    B1    B2 
	DOCC [     3,    0,    0,    1 ]
	SOCC [     1,    0,    0,    0 ]

   @ROHF iter   2:   -73.51819503760552   -1.72342e+00   8.45940e-01 DIIS
	Occupation by irrep:
	         A1    A2    B1    B2 
	DOCC [     3,    0,    0,    1 ]
	SOCC [     0,    0,    1,    0 ]

   @ROHF iter   3:   -75.42039262308252   -1.90220e+00   6.42962e-01 DIIS
   @ROHF iter   4:   -75.59274927887638   -1.72357e-01   6.50763e-02 DIIS
   @ROHF iter   5:   -75.59647861200200   -3.72933e-03   9.91089e-03 DIIS
   @ROHF iter   6:   -75.59660307148008   -1.24459e-04   2.31624e-03 DIIS
   @ROHF iter   7:   -75.59660353635886   -4.64879e-07   1.22331e-04 DIIS
   @ROHF iter   8:   -75.59660356985522   -3.34964e-08   4.01610e-05 DIIS
   @ROHF iter   9:   -75.59660357297626   -3.12104e-09   1.40116e-05 DIIS
   @ROHF iter  10:   -75.59660357302995   -5.36886e-11   1.94452e-06 DIIS
   @ROHF iter  11:   -75.59660357303076   -8.10019e-13   2.26173e-07 DIIS
   @ROHF iter  12:   -75.59660357303078   -1.42109e-14   1.72949e-08 DIIS

  ==> Post-Iterations <==

	Orbital Energies (a.u.)
	-----------------------

	Doubly Occupied:                                                      

	   1A1   -21.104308     2A1    -1.814430     1B2    -1.147755  
	   3A1    -1.052639  

	Singly Occupied:                                                      

	   1B1    -0.690438  

	Virtual:                                                              

	   4A1    -0.141470     2B2    -0.063713     2B1     0.460250  
	   5A1     0.501918     3B2     0.544344     4B2     0.757295  
	   6A1     0.784415     7A1     1.244711     8A1    42.782257  

	Final Occupation by Irrep:
	         A1    A2    B1    B2 
	DOCC [     3,    0,    0,    1 ]
	SOCC [     0,    0,    1,    0 ]

  Energy converged.

  @ROHF Final Energy:   -75.59660357303078

   => Energetics <=

    Nuclear Repulsion Energy =          8.6593823487344341
    One-Electron Energy =            -117.1586194900023088
    Two-Electron Energy =              32.9026335682370927
    DFT Functional Energy =             0.0000000000000000
    Empirical Dispersion Energy =       0.0000000000000000
    Total Energy =                    -75.5966035730307766

  ==> Properties <==

  Nuclear Dipole Moment: (a.u.)
     X:     0.0000      Y:     0.0000      Z:     1.1250

  Electronic Dipole Moment: (a.u.)
     X:     0.0000      Y:     0.0000      Z:     0.2134

  Dipole Moment: (a.u.)
     X:     0.0000      Y:     0.0000      Z:     1.3384     Total:     1.3384

  Dipole Moment: (Debye)
     X:     0.0000      Y:     0.0000      Z:     3.4019     Total:     3.4019


  Saving occupied orbitals to File 180.

*** tstop() called on lawn-143-215-103-161.lawn.gatech.edu at Fri Apr 27 14:20:08 2012
Module time:
	user time   =       0.05 seconds =       0.00 minutes
	system time =       0.00 seconds =       0.00 minutes
	total time  =          0 seconds =       0.00 minutes
Total time:
	user time   =       2.18 seconds =       0.04 minutes
	system time =       1.93 seconds =       0.03 minutes
	total time  =          7 seconds =       0.12 minutes

*** tstart() called on lawn-143-215-103-161.lawn.gatech.edu
*** at Fri Apr 27 14:20:08 2012


	**************************************************
	* TRANSQT2: Program to transform integrals from  *
	*           the SO basis to the MO basis.        *
	*                                                *
	*            Daniel, David, & Justin             *
	**************************************************


	Input parameters:
	-----------------
	Wave function   =	CCSD
	Backtransform   =	No
	Print Level     =	1
	Print TEIs      =	No
	Reference wfn   =	ROHF
	Derivative      =	None
	Delete TEI File =	Yes
	Memory (Mbytes) =	250.0
	Cache Level     =	2
	Cache Type      =	LRU
	Chkpt Parameters:
	--------------------
	Number of irreps     = 4
	Number of SOs        = 14
	Number of MOs        = 14
	Number of active MOs = 14

	Label	# SOs	# FZDC	# DOCC	# SOCC	# VIRT	# FZVR
	-----	-----	------	------	------	------	------
	 A1	   8	    0	    3	    0	    5	    0
	 A2	   0	    0	    0	    0	    0	    0
[...]

*** tstart() called on lawn-143-215-103-161.lawn.gatech.edu
*** at Fri Apr 27 14:20:53 2012


	**************************************************
	* TRANSQT2: Program to transform integrals from  *
	*           the SO basis to the MO basis.        *
	*                                                *
	*            Daniel, David, & Justin             *
	**************************************************


	Input parameters:
	-----------------
	Wave function   =	CCSD
	Backtransform   =	No
	Print Level     =	1
	Print TEIs      =	No
	Reference wfn   =	ROHF
	Derivative      =	None
	Delete TEI File =	Yes
	Memory (Mbytes) =	250.0
	Cache Level     =	2
	Cache Type      =	LRU
	Chkpt Parameters:
	--------------------
	Number of irreps     = 4
	Number of SOs        = 14
	Number of MOs        = 14
	Number of active MOs = 14

	Label	# SOs	# FZDC	# DOCC	# SOCC	# VIRT	# FZVR
	-----	-----	------	------	------	------	------
	 A1	   8	    0	    3	    0	    5	    0
	 A2	   0	    0	    0	    0	    0	    0
	 B1	   2	    0	    0	    1	    1	    0
	 B2	   4	    0	    1	    0	    3	    0

	Nuclear Rep. energy (chkpt) =      8.64716688815186
	SCF energy          (chkpt) =    -75.59667211502365

	Presorting SO-basis two-electron integrals.
	Sorting File: SO Ints (pq,rs) nbuckets = 1
	Frozen-core energy =    0.000000000000000
	Starting first half-transformation.
	Sorting half-transformed integrals.
	Starting second half-transformation.
	Two-electron integral transformation complete.

*** tstop() called on lawn-143-215-103-161.lawn.gatech.edu at Fri Apr 27 14:20:53 2012
Module time:
	user time   =       0.00 seconds =       0.00 minutes
	system time =       0.01 seconds =       0.00 minutes
	total time  =          0 seconds =       0.00 minutes
Total time:
	user time   =      12.27 seconds =       0.20 minutes
	system time =      11.36 seconds =       0.19 minutes
	total time  =         52 seconds =       0.87 minutes

*** tstart() called on lawn-143-215-103-161.lawn.gatech.edu
*** at Fri Apr 27 14:20:53 2012


			**************************
			*                        *
			*         CCSORT         *
			*                        *
			**************************


	Input parameters:
	-----------------
	Wave function   =	CCSD
	Reference wfn   =	ROHF
	Derivative      =	None
	Memory (Mbytes) =	250.0
	AO Basis        =	NONE
	Make (ab|cd)    =	True
	Make unpacked (ab|cd) =	True
	Cache Level     =	2
	Cache Type      =	LRU
	Local CC        =     No


	Chkpt Parameters:
	--------------------
	Number of irreps     = 4
	Number of MOs        = 14
	Number of active MOs = 14

	Label	# MOs	# FZDC	# DOCC	# SOCC	# VIRT	# FZVR
	-----	-----	------	------	------	------	------
	 A1	   8	    0	    3	    0	    5	    0
	 A2	   0	    0	    0	    0	    0	    0
	 B1	   2	    0	    0	    1	    1	    0
	 B2	   4	    0	    1	    0	    3	    0

	Nuclear Rep. energy (chkpt) =      8.64716688815186
	SCF energy          (chkpt) =    -75.59667211502365

	Size of irrep 0 of <ab|cd> integrals:      0.001 (MW) /      0.012 (MB)
	Size of irrep 1 of <ab|cd> integrals:      0.000 (MW) /      0.001 (MB)
	Size of irrep 2 of <ab|cd> integrals:      0.000 (MW) /      0.003 (MB)
	Size of irrep 3 of <ab|cd> integrals:      0.001 (MW) /      0.007 (MB)
	Total:                                     0.003 (MW) /      0.023 (MB)

	Size of irrep 0 of <ia|bc> integrals:      0.001 (MW) /      0.006 (MB)
	Size of irrep 1 of <ia|bc> integrals:      0.000 (MW) /      0.000 (MB)
	Size of irrep 2 of <ia|bc> integrals:      0.000 (MW) /      0.002 (MB)
	Size of irrep 3 of <ia|bc> integrals:      0.000 (MW) /      0.003 (MB)
	Total:                                     0.001 (MW) /      0.012 (MB)

	Size of irrep 0 of tIjAb amplitudes:       0.000 (MW) /      0.003 (MB)
	Size of irrep 1 of tIjAb amplitudes:       0.000 (MW) /      0.000 (MB)
	Size of irrep 2 of tIjAb amplitudes:       0.000 (MW) /      0.001 (MB)
	Size of irrep 3 of tIjAb amplitudes:       0.000 (MW) /      0.001 (MB)
	Total:                                     0.001 (MW) /      0.006 (MB)


	Sorting File: A <ij|kl> nbuckets = 1
	Sorting File: B <ab|cd> nbuckets = 1
	Sorting File: C <ia|jb> nbuckets = 1
	Sorting File: D <ij|ab> nbuckets = 1
	Sorting File: E <ai|jk> nbuckets = 1
	Sorting File: F <ia|bc> nbuckets = 1
	Sorting File: F <ai|bc> nbuckets = 1
	One-electron energy          =   -117.14010978889314
	Two-electron (AA) energy     =     15.41303672177256
	Two-electron (BB) energy     =      9.33518748295254
	Two-electron (AB) energy     =     20.52215868335504
	Two-electron energy          =     32.89627078571759
	Frozen-core energy (transqt) =      0.00000000000000
	Reference energy             =    -75.59667211502369

*** tstop() called on lawn-143-215-103-161.lawn.gatech.edu at Fri Apr 27 14:20:53 2012
Module time:
	user time   =       0.02 seconds =       0.00 minutes
	system time =       0.04 seconds =       0.00 minutes
	total time  =          0 seconds =       0.00 minutes
Total time:
	user time   =      12.29 seconds =       0.20 minutes
	system time =      11.40 seconds =       0.19 minutes
	total time  =         52 seconds =       0.87 minutes

*** tstart() called on lawn-143-215-103-161.lawn.gatech.edu
*** at Fri Apr 27 14:20:53 2012

			**************************
			*                        *
			*        CCENERGY        *
			*                        *
			**************************

	Nuclear Rep. energy (chkpt)   =    8.647166888151858
	SCF energy          (chkpt)   =  -75.596672115023651
	Reference energy    (file100) =  -75.596672115023694

	Input parameters:
	-----------------
	Wave function   =     CCSD
	Reference wfn   =    ROHF
	Memory (Mbytes) =     250.0
	Maxiter         =     50
	Convergence     =     1.0e-07
	Restart         =     No
	DIIS            =     Yes
	AO Basis        =     NONE
	ABCD            =     NEW
	Cache Level     =     2
	Cache Type      =     LOW
	Print Level     =     1
	Num. of threads =     1
	# Amps to Print =     10
	Print MP2 Amps? =     No
	Analyze T2 Amps =     No
	Print Pair Ener =     No
	Local CC        =     No
	SCS-MP2         =     False
	SCSN-MP2        =     False
	SCS-CCSD        =     False

	            Solving CC Amplitude Equations
	            ------------------------------
  Iter             Energy              RMS        T1Diag      D1Diag    New D1Diag
  ----     ---------------------    ---------   ----------  ----------  ----------
     0        -0.103569696093731    5.764e-08    0.000154    0.000452    0.000452
     1        -0.111771016407871    4.000e-02    0.006340    0.011853    0.011853
     2        -0.116057760804708    1.502e-02    0.007707    0.014629    0.014629
     3        -0.117014007692471    5.657e-03    0.008317    0.016143    0.016143
     4        -0.117097862170011    2.369e-03    0.008264    0.016162    0.016162
     5        -0.117126152901988    8.858e-04    0.008258    0.016134    0.016134
     6        -0.117137544905683    2.853e-04    0.008258    0.016130    0.016130
     7        -0.117138549120907    9.235e-05    0.008258    0.016134    0.016134
     8        -0.117139118984028    2.776e-05    0.008259    0.016137    0.016137
     9        -0.117139054340180    8.950e-06    0.008259    0.016137    0.016137
    10        -0.117139022773012    3.122e-06    0.008259    0.016137    0.016137
    11        -0.117139010254566    8.247e-07    0.008259    0.016136    0.016136
    12        -0.117138986216374    2.241e-07    0.008259    0.016136    0.016136
    13        -0.117138982680376    5.580e-08    0.008259    0.016136    0.016136

	Iterations converged.


	Largest TIA Amplitudes:
	          3   5        -0.0113988814
	          1   0        -0.0102859076
	          1   2        -0.0095030342
	          2   0         0.0083153305
	          4   8         0.0070960711
	          4   9        -0.0070682644
	          1   3         0.0034872605
	          2   1         0.0031202515
	          1   1         0.0027264714
	          2   3         0.0024621908

	Largest Tia Amplitudes:
	          4   7         0.0321062937
	          1   0         0.0209978131
	          2   0         0.0171924919
	          2   1        -0.0168047626
	          1   2         0.0147755358
	          4   9         0.0101495625
	          2   3         0.0063791872
	          1   1         0.0051303917
	          4   8         0.0039696074
	          2   2         0.0020776837

	Largest TIJAB Amplitudes:
	  3   2   5   1        -0.0233338237
	  4   3   7   5         0.0195343679
	  4   2   7   1         0.0177278226
	  4   3   9   5         0.0147067254
	  4   2   9   1         0.0134723389
	  4   3   8   5        -0.0129131577
	  3   2   5   0         0.0120955324
	  4   2   8   1        -0.0113112134
	  3   1   5   0         0.0111375520
	  3   1   5   3        -0.0100753956

	Largest Tijab Amplitudes:
	  4   2   7   1         0.0181308340
	  4   2   9   1         0.0130073213
	  4   2   8   1        -0.0108998960
	  2   1   1   0         0.0091927999
	  4   2   7   0        -0.0090596979
	  2   1   3   1         0.0084860035
	  4   1   8   0         0.0073286522
	  4   1   7   0        -0.0071186220
	  4   1   7   3         0.0064364900
	  4   2   8   0         0.0062958852

	Largest TIjAb Amplitudes:
	  4   4   7   7        -0.0526325827
	  2   2   1   1        -0.0435528190
	  4   4   9   7        -0.0352987243
	  4   4   7   9        -0.0347954507
	  3   4   7   6         0.0323853477
	  3   2   5   1        -0.0313728260
	  3   1   0   6         0.0301770134
	  4   4   9   9        -0.0299912950
	  2   4   1   7         0.0271711014
	  4   2   7   1         0.0268068244

	SCF energy       (chkpt)              =  -75.596672115023651
	Reference energy (file100)            =  -75.596672115023694

	Opposite-spin CCSD correlation energy =    0.000000000000000
	Same-spin CCSD correlation energy     =    0.000000000000000
	CCSD correlation energy               =   -0.117138982680376
      * CCSD total energy                     =  -75.713811097704067


*** tstop() called on lawn-143-215-103-161.lawn.gatech.edu at Fri Apr 27 14:20:55 2012
Module time:
	user time   =       0.36 seconds =       0.01 minutes
	system time =       0.39 seconds =       0.01 minutes
	total time  =          2 seconds =       0.03 minutes
Total time:
	user time   =      12.66 seconds =       0.21 minutes
	system time =      11.79 seconds =       0.20 minutes
	total time  =         54 seconds =       0.90 minutes

*** tstart() called on lawn-143-215-103-161.lawn.gatech.edu
*** at Fri Apr 27 14:20:55 2012


			**************************
			*                        *
			*         CCHBAR         *
			*                        *
			**************************


*** tstop() called on lawn-143-215-103-161.lawn.gatech.edu at Fri Apr 27 14:20:56 2012
Module time:
	user time   =       0.03 seconds =       0.00 minutes
	system time =       0.05 seconds =       0.00 minutes
	total time  =          1 seconds =       0.02 minutes
Total time:
	user time   =      12.69 seconds =       0.21 minutes
	system time =      11.84 seconds =       0.20 minutes
	total time  =         55 seconds =       0.92 minutes

*** tstart() called on lawn-143-215-103-161.lawn.gatech.edu
*** at Fri Apr 27 14:20:56 2012


	**********************************************************
	*  CCEOM: An Equation of Motion Coupled Cluster Program  *
	**********************************************************

	Nuclear Rep. energy (chkpt)   =    8.647166888151858
	SCF energy          (chkpt)   =  -75.596672115023651
	Reference energy    (file100) =  -75.596672115023694
	CCSD energy         (file100) =   -0.117138982680376

	Input parameters:
	-----------------
	Reference wfn   =    ROHF
	Reference EOM wfn=    ROHF
	Memory (Mbytes) =  250.0
	ABCD            =     NEW
	Cache Level     =    2
	Cache Type      =     LRU
	Num. of threads =     1
	Local CC        =     No


	CCEOM parameters:
	-----------------
	States sought per irrep     = A1 0, A2 0, B1 1, B2 0,
	Max. number of iterations   =    80
	Vectors stored per root     =    12
	Print HbarSS iterations?    =     0
	Excitation range for HBarSS =     2
	Eigenvalue tolerance        = 1.0e-08
	Eigenvalue toleranceSS      = 1.0e-06
	Residual vector tolerance   = 1.0e-06
	Residual vector toleranceSS = 1.0e-06
	Complex tolerance           = 1.0e-12
	Root for properties         =     1
	Sym of state for properties =     A1
	Guess vectors taken from    = SINGLES
	Restart EOM CC3             = NO
	Collapse with last vector   = YES


Symmetry of ground state: B1
Symmetry of excited state: B1
Symmetry of right eigenvector: A1
Obtaining initial guess from singles-singles block of Hbar...Done.

Iter=1    L=1     Root    EOM Energy     Delta E   Res. Norm    Conv?
                     1   0.5244675723   5.24e-01    3.36e-01      N
Iter=2    L=2     Root    EOM Energy     Delta E   Res. Norm    Conv?
                     1   0.4678544014  -5.66e-02    8.11e-02      N
Iter=3    L=3     Root    EOM Energy     Delta E   Res. Norm    Conv?
                     1   0.4601005041  -7.75e-03    7.00e-02      N
Iter=4    L=4     Root    EOM Energy     Delta E   Res. Norm    Conv?
                     1   0.4543023180  -5.80e-03    6.33e-02      N
Iter=5    L=5     Root    EOM Energy     Delta E   Res. Norm    Conv?
                     1   0.4521270049  -2.18e-03    3.46e-02      N
Iter=6    L=6     Root    EOM Energy     Delta E   Res. Norm    Conv?
                     1   0.4513061600  -8.21e-04    2.32e-02      N
Iter=7    L=7     Root    EOM Energy     Delta E   Res. Norm    Conv?
                     1   0.4507472504  -5.59e-04    2.02e-02      N
Iter=8    L=8     Root    EOM Energy     Delta E   Res. Norm    Conv?
                     1   0.4505471175  -2.00e-04    1.10e-02      N
Iter=9    L=9     Root    EOM Energy     Delta E   Res. Norm    Conv?
                     1   0.4505040349  -4.31e-05    5.19e-03      N
Iter=10   L=10    Root    EOM Energy     Delta E   Res. Norm    Conv?
                     1   0.4504775065  -2.65e-05    4.28e-03      N
Iter=11   L=11    Root    EOM Energy     Delta E   Res. Norm    Conv?
                     1   0.4504674426  -1.01e-05    2.08e-03      N
Iter=12   L=12    Root    EOM Energy     Delta E   Res. Norm    Conv?
                     1   0.4504643615  -3.08e-06    7.76e-04      N
Iter=13   L=2     Root    EOM Energy     Delta E   Res. Norm    Conv?
                     1   0.4504643615   7.77e-16    7.76e-04      N
Iter=14   L=3     Root    EOM Energy     Delta E   Res. Norm    Conv?
                     1   0.4504643413  -2.02e-08    6.28e-04      N
Iter=15   L=4     Root    EOM Energy     Delta E   Res. Norm    Conv?
                     1   0.4504628700  -1.47e-06    4.08e-04      N
Iter=16   L=5     Root    EOM Energy     Delta E   Res. Norm    Conv?
                     1   0.4504625580  -3.12e-07    1.58e-04      N
Iter=17   L=6     Root    EOM Energy     Delta E   Res. Norm    Conv?
                     1   0.4504621629  -3.95e-07    6.79e-05      N
Iter=18   L=7     Root    EOM Energy     Delta E   Res. Norm    Conv?
                     1   0.4504621523  -1.06e-08    2.96e-05      N
Iter=19   L=8     Root    EOM Energy     Delta E   Res. Norm    Conv?
                     1   0.4504621651   1.28e-08    1.04e-05      N
Iter=20   L=9     Root    EOM Energy     Delta E   Res. Norm    Conv?
                     1   0.4504621600  -5.06e-09    4.43e-06      N
Iter=21   L=10    Root    EOM Energy     Delta E   Res. Norm    Conv?
                     1   0.4504621562  -3.82e-09    3.44e-06      N
Iter=22   L=11    Root    EOM Energy     Delta E   Res. Norm    Conv?
                     1   0.4504621560  -2.65e-10    3.55e-06      N
Iter=23   L=12    Root    EOM Energy     Delta E   Res. Norm    Conv?
                     1   0.4504621496  -6.38e-09    1.29e-06      N
Iter=24   L=2     Root    EOM Energy     Delta E   Res. Norm    Conv?
                     1   0.4504621496  -2.16e-13    1.29e-06      N
Iter=25   L=3     Root    EOM Energy     Delta E   Res. Norm    Conv?
                     1   0.4504621493  -2.60e-10    3.39e-07      Y
Collapsing to only 1 vector(s).

Procedure converged for 1 root(s).
Energy written to chkpt:Etot  -75.2633489484
States per irrep written to chkpt.
<R|R> =   1.0000000000000004
EOM CCSD R0 for root 0 =   0.00779842543

Final Energetic Summary for Converged Roots of Irrep B1
                     Excitation Energy              Total Energy
                (eV)     (cm^-1)     (au)             (au)
EOM State 1     12.258    98865.0   0.4504621493   -75.263348948395

Largest components of excited wave function #1:
 RIA (libdpd indices) : (cscf notation)
         2 >   0      :       3a1 >    4a1 :    0.5428262326
         0 >   0      :       1b2 >    2b2 :    0.1260840252
         2 >   2      :       3a1 >    6a1 :    0.0659296144
         2 >   1      :       3a1 >    5a1 :   -0.0578295560
         1 >   0      :       2a1 >    4a1 :    0.0360528719
 Ria (libdpd indices) : (cscf notation)
         2 >   0      :       3a1 >    4a1 :   -0.7132566675
         0 >   0      :       1b2 >    2b2 :   -0.1118780368
         2 >   2      :       3a1 >    6a1 :   -0.0736572622
         2 >   1      :       3a1 >    5a1 :    0.0574293155
         0 >   2      :       1b2 >    4b2 :   -0.0297283724
 RIjAb (libdpd indices)     : (cscf notation)
        0   2 >   0   1     :    1b1    3a1 >    4a1    1b1 :    0.3213266106
        0   0 >   0   1     :    1b1    1b2 >    2b2    1b1 :    0.0848219330
        0   2 >   0   0     :    1b2    3a1 >    2b2    4a1 :    0.0696519031
        2   2 >   1   0     :    3a1    3a1 >    5a1    4a1 :   -0.0553123807
        2   0 >   0   0     :    3a1    1b2 >    4a1    2b2 :   -0.0541333423
 RIJAB (libdpd indices)     : (cscf notation)
        0   2 >   0   0     :    1b1    3a1 >    2b1    4a1 :    0.0281860707
        0   2 >   0   0     :    1b2    3a1 >    2b2    4a1 :   -0.0278311803
        0   2 >   2   0     :    1b2    3a1 >    4b2    4a1 :   -0.0165596331
        2   1 >   2   0     :    3a1    2a1 >    6a1    4a1 :    0.0109583463
        0   2 >   0   2     :    1b2    3a1 >    2b2    6a1 :    0.0097451756
 Rijab (libdpd indices)     : (cscf notation)
        0   2 >   0   0     :    1b2    3a1 >    2b2    4a1 :    0.0376311572
        0   2 >   2   0     :    1b2    3a1 >    4b2    4a1 :    0.0224932099
        2   1 >   1   0     :    3a1    2a1 >    1b1    2b1 :    0.0163404663
        2   1 >   2   0     :    3a1    2a1 >    6a1    4a1 :   -0.0154078869
        0   2 >   0   2     :    1b2    3a1 >    2b2    6a1 :   -0.0140777722

	Putting into environment energy for root of R irrep 1 and root 1.
	Putting into environment CURRENT ENERGY:              -75.2633489484

	Total # of sigma evaluations: 23

*** tstop() called on lawn-143-215-103-161.lawn.gatech.edu at Fri Apr 27 14:20:56 2012
Module time:
	user time   =       0.37 seconds =       0.01 minutes
	system time =       0.28 seconds =       0.00 minutes
	total time  =          0 seconds =       0.00 minutes
Total time:
	user time   =      13.07 seconds =       0.22 minutes
	system time =      12.12 seconds =       0.20 minutes
	total time  =         55 seconds =       0.92 minutes

-------------------------------------------------------------

  Computing gradient from energies (fd_1_0).
	Using 5-point formula.
	Energy without displacement:  -75.2633489484
	Check energies below for precision!
	Forces are for mass-weighted, symmetry-adapted cartesians (in au).

	 Coord      Energy(-2)        Energy(-1)        Energy(+1)        Energy(+2)            Force
	    0    -75.2659070938    -75.2646312194    -75.2620602517    -75.2607651002      0.2570958022
	    1    -75.2619922532    -75.2626710807    -75.2640258747    -75.2647018778     -0.1354788016

	Gradient written to file11.
	Gradient saved to wavefunction.

-------------------------------------------------------------

*** PSI4 exiting successfully. Buy a developer a beer!
