    -----------------------------------------------------------------------
          PSI4: An Open-Source Ab Initio Electronic Structure Package
                              PSI 4.0.0-beta1 Driver

               Git: Rev 8268e5ba0276eef671d5bc4a44cf66fa46407463

    J. M. Turney, A. C. Simmonett, R. M. Parrish, E. G. Hohenstein,
    F. A. Evangelista, J. T. Fermann, B. J. Mintz, L. A. Burns, J. J. Wilke,
    M. L. Abrams, N. J. Russ, M. L. Leininger, C. L. Janssen, E. T. Seidl,
    W. D. Allen, H. F. Schaefer, R. A. King, E. F. Valeev, C. D. Sherrill,
    and T. D. Crawford, WIREs Comput. Mol. Sci., (2011) (doi: 10.1002/wcms.93)

                         Additional Contributions by
    A. E. DePrince, M. Saitow, U. Bozkaya, A. Yu. Sokolov
    -----------------------------------------------------------------------


    Using LocalCommunicator (Number of processes = 1)

    Memory level set to 256.000 MB

  ==> Input File <==

--------------------------------------------------------------------------
#! Database calculation with psi4-generated input. Should not be used as a model
#! input file but as a canary to avoid breaking database/input parser dependencies.

memory 250 mb
 
refenergy = -40.195693876290                                                                          #TEST

# This is a psi4 input file auto-generated from the database() wrapper.

PsiMod.print_out('\n')
banner(' Database BASIC Computation: Reagent BASIC-ch4-reagent \n   methane')
PsiMod.print_out('\n')

from PsiMod import *
from physconst import *
from molutil import *
from driver import *
from text import *
from inpsight import *
from wrappers import *
from aliases import *
from psiexceptions import *
from util import *
from qmmm import *
from frac import *
from pubchem import *
import pickle
psi4_io = PsiMod.IOManager.shared_object()
geometry("""
0 1
H
H 1 0.74
""","blank_molecule_psi4_yo")

dimer = geometry("""
0 1
C        0.00000000    -0.00014000     1.85916100
H       -0.88855100     0.51306000     1.49468500
H        0.88855100     0.51306000     1.49468500
H        0.00000000    -1.02633900     1.49486800
H        0.00000000     0.00008900     2.94828400
units angstrom
""","dimer")
PsiMod.IO.set_default_namespace("dimer")

PsiMod.set_memory(256000000)

PsiMod.set_global_option('BASIS', '6-31+G*')
PsiMod.set_global_option('DF_BASIS_MP2', 'CC-PVDZ-RI')
PsiMod.set_global_option('DF_BASIS_SAPT', 'CC-PVDZ-RI')
PsiMod.set_global_option('DF_BASIS_SCF', 'CC-PVDZ-JKFIT')
PsiMod.set_global_option('GUESS', 'CORE')
PsiMod.set_global_option('JOBTYPE', 'SP')
PsiMod.set_global_option('PRINT', 1)
PsiMod.set_global_option('REFERENCE', 'RHF')
PsiMod.set_global_option('R_CONVERGENCE', 1e-11)
PsiMod.set_global_option('SCF_TYPE', 'DF')

PsiMod.set_global_option('BASIS', '6-31+G*')
PsiMod.set_global_option('DF_BASIS_SCF', 'CC-PVDZ-JKFIT')
PsiMod.set_global_option('DF_BASIS_MP2', 'CC-PVDZ-RI')
PsiMod.set_global_option('DF_BASIS_SAPT', 'CC-PVDZ-RI')
molecule = PsiMod.get_active_molecule()
molecule.update_geometry()

pickle_kw = ("""(dp0
S'subset'
p1
(lp2
S'ch4'
p3
asS'name'
p4
S'scf'
p5
sS'db_mode'
p6
S'sow'
p7
sS'db_name'
p8
S'BASIC'
p9
sS'db_func'
p10
cdriver
optimize
p11
s.""")

kwargs = pickle.loads(pickle_kw)
electronic_energy = optimize(**kwargs)

PsiMod.print_variables()
PsiMod.print_out('\nDATABASE RESULT: computation 80955 for reagent BASIC-ch4-reagent yields electronic energy %20.12f\n' % (electronic_energy))
PsiMod.set_variable('NATOM', molecule.natom())

compare_values(refenergy, electronic_energy, 5, 'Optimized reference energy for sown BASIC reagent')  #TEST
--------------------------------------------------------------------------

  Memory set to 250.000 MiB by Python script.

  //>>>>>>>>>>>>>>>>>>>>>>>>>>>>>>>>>>>>>>>>>>>>>>>>>>>>>>>//
  // Database BASIC Computation: Reagent BASIC-ch4-reagent //
  //                          methane                      //
  //<<<<<<<<<<<<<<<<<<<<<<<<<<<<<<<<<<<<<<<<<<<<<<<<<<<<<<<//


  Memory set to 256.000 MiB by Python script.

*** tstart() called on lawn-143-215-103-161.lawn.gatech.edu
*** at Fri Apr 27 14:40:08 2012


         ---------------------------------------------------------
                                   SCF
            by Justin Turney, Rob Parrish, and Andy Simmonett
                              RHF Reference
                        1 Threads,    256 MiB Core
         ---------------------------------------------------------

  ==> Geometry <==

    Molecular point group: cs

    Geometry (in Angstrom), charge = 0, multiplicity = 1:

       Center              X                  Y                   Z       
    ------------   -----------------  -----------------  -----------------
           C          0.000027032415    -0.000259133991     0.000000000000
           H         -0.513172967585     0.364216866009    -0.888551000000
           H         -0.513172967585     0.364216866009     0.888551000000
           H          1.026226032415     0.364033866009     0.000000000000
           H         -0.000201967585    -1.089382133991     0.000000000000

  Running in cs symmetry.

  Nuclear repulsion =   13.448042265558403

  Charge       = 0
  Multiplicity = 1
  Electrons    = 10
  Nalpha       = 5
  Nbeta        = 5

  ==> Algorithm <==

  SCF Algorithm Type is DF.
  DIIS enabled.
  MOM disabled.
  Fractional occupation disabled.
  Guess Type is CORE.
  Energy threshold   = 1.00e-08
  Density threshold  = 1.00e-08
  Integral threshold = 0.00e+00

  ==> Primary Basis <==

  Basis Set: 6-31+G*
    Number of shells: 16
    Number of basis function: 27
    Number of Cartesian functions: 27
    Spherical Harmonics?: false
    Max angular momentum: 2

  ==> Pre-Iterations <==

  Minimum eigenvalue in the overlap matrix is 1.2194632666E-02.
  Using Symmetric Orthogonalization.
  SCF Guess: Core (One-Electron) Hamiltonian.

  Initial RHF energy:   -31.13338281418988

   -------------------------------------------------------
    Irrep   Nso     Nmo     Nalpha   Nbeta   Ndocc  Nsocc
   -------------------------------------------------------
     A'        20      20       4       4       4       0
     A"         7       7       1       1       1       0
   -------------------------------------------------------
    Total      27      27       5       5       5       0
   -------------------------------------------------------

  ==> Integral Setup <==

  ==> DFJK: Density-Fitted J/K Matrices <==

    J tasked:                  Yes
    K tasked:                  Yes
    wK tasked:                  No
    OpenMP threads:              1
    Integrals threads:           1
    Memory (MB):               183
    Algorithm:                Core
    Integral Cache:           NONE
    Schwarz Cutoff:          0E+00
    Fitting Condition:       1E-12

   => Auxiliary Basis Set <=

  Basis Set: CC-PVDZ-JKFIT
    Number of shells: 60
    Number of basis function: 162
    Number of Cartesian functions: 181
    Spherical Harmonics?: true
    Max angular momentum: 3

  ==> Iterations <==

                        Total Energy        Delta E     Density RMS

   @RHF iter   1:   -32.58057896203859   -1.44720e+00   0.00000e+00 
   @RHF iter   2:   -34.03041993229856   -1.44984e+00   2.39776e-01 DIIS
   @RHF iter   3:   -39.52579529353358   -5.49538e+00   1.06928e-01 DIIS
   @RHF iter   4:   -40.12435866120980   -5.98563e-01   2.05381e-02 DIIS
   @RHF iter   5:   -40.19523649702515   -7.08778e-02   1.13648e-02 DIIS
   @RHF iter   6:   -40.19559517090727   -3.58674e-04   1.91298e-03 DIIS
   @RHF iter   7:   -40.19562366461264   -2.84937e-05   3.15535e-04 DIIS
   @RHF iter   8:   -40.19562429535277   -6.30740e-07   4.77304e-05 DIIS
   @RHF iter   9:   -40.19562429581123   -4.58456e-10   1.02691e-06 DIIS
   @RHF iter  10:   -40.19562429583543   -2.42011e-11   2.13775e-07 DIIS
   @RHF iter  11:   -40.19562429583588   -4.54747e-13   4.03677e-08 DIIS

  ==> Post-Iterations <==

	Orbital Energies (a.u.)
	-----------------------

	Doubly Occupied:                                                      

	   1A'   -11.209461     2A'    -0.944470     3A'    -0.546840  
	   4A'    -0.546451     1A"    -0.546383  

	Virtual:                                                              

	   5A'     0.093299     6A'     0.122183     7A'     0.122219  
	   2A"     0.122225     3A"     0.332939     8A'     0.332973  
	   9A'     0.333127    10A'     0.415514     4A"     0.856479  
	  11A'     0.856490    12A'     0.856574     5A"     1.206295  
	  13A'     1.206401    14A'     1.206963    15A'     1.311562  
	  16A'     1.381358    17A'     1.940359     6A"     1.940375  
	  18A'     2.617261    19A'     2.618226     7A"     2.618364  
	  20A'     4.636038  

	Final Occupation by Irrep:
	         A'    A" 
	DOCC [     4,    1 ]

  Energy converged.

  @RHF Final Energy:   -40.19562429583588

   => Energetics <=

    Nuclear Repulsion Energy =         13.4480422655584029
    One-Electron Energy =             -79.7001235783371840
    Two-Electron Energy =              26.0564570169429004
    DFT Functional Energy =             0.0000000000000000
    Empirical Dispersion Energy =       0.0000000000000000
    Total Energy =                    -40.1956242958358843

  ==> Properties <==

  Nuclear Dipole Moment: (a.u.)
     X:    -0.0003      Y:     0.0029      Z:     0.0000

  Electronic Dipole Moment: (a.u.)
     X:     0.0002      Y:    -0.0023      Z:     0.0000

  Dipole Moment: (a.u.)
     X:    -0.0001      Y:     0.0006      Z:     0.0000     Total:     0.0006

  Dipole Moment: (Debye)
     X:    -0.0002      Y:     0.0015      Z:     0.0000     Total:     0.0015


  Saving occupied orbitals to File 180.

*** tstop() called on lawn-143-215-103-161.lawn.gatech.edu at Fri Apr 27 14:40:08 2012
Module time:
	user time   =       0.17 seconds =       0.00 minutes
	system time =       0.01 seconds =       0.00 minutes
	total time  =          0 seconds =       0.00 minutes
Total time:
	user time   =       0.17 seconds =       0.00 minutes
	system time =       0.01 seconds =       0.00 minutes
	total time  =          0 seconds =       0.00 minutes

*** tstart() called on lawn-143-215-103-161.lawn.gatech.edu
*** at Fri Apr 27 14:40:08 2012


         ------------------------------------------------------------
                                   SCF GRAD                          
                          Rob Parrish, Justin Turney,                
                       Andy Simmonett, and Alex Sokolov              
         ------------------------------------------------------------

  ==> Geometry <==

    Molecular point group: cs

    Geometry (in Angstrom), charge = 0, multiplicity = 1:

       Center              X                  Y                   Z       
    ------------   -----------------  -----------------  -----------------
           C          0.000027032415    -0.000259133991     0.000000000000
           H         -0.513172967585     0.364216866009    -0.888551000000
           H         -0.513172967585     0.364216866009     0.888551000000
           H          1.026226032415     0.364033866009     0.000000000000
           H         -0.000201967585    -1.089382133991     0.000000000000

  Nuclear repulsion =   13.448042265558403

  ==> Basis Set <==

  Basis Set: 6-31+G*
    Number of shells: 16
    Number of basis function: 27
    Number of Cartesian functions: 27
    Spherical Harmonics?: false
    Max angular momentum: 2

  ==> DFJKGrad: Density-Fitted SCF Gradients <==

    J tasked:                  Yes
    K tasked:                  Yes
    wK tasked:                  No
    OpenMP threads:              1
    Integrals threads:           1
    Memory (MB):               183
    Schwarz Cutoff:          0E+00
    Fitting Condition:       1E-12

   => Auxiliary Basis Set <=

  Basis Set: CC-PVDZ-JKFIT
    Number of shells: 60
    Number of basis function: 162
    Number of Cartesian functions: 181
    Spherical Harmonics?: true
    Max angular momentum: 3

  ## Total Gradient (Symmetry 0) ##
  Irrep: 1 Size: 5 x 3

                 1            2            3

    1    0.0000345   -0.0003451   -0.0000000
    2   -0.0016666    0.0013834   -0.0028227
    3   -0.0016666    0.0013834    0.0028227
    4    0.0033086    0.0013839    0.0000000
    5   -0.0000098   -0.0038057    0.0000000




*** tstop() called on lawn-143-215-103-161.lawn.gatech.edu at Fri Apr 27 14:40:09 2012
Module time:
	user time   =       0.29 seconds =       0.00 minutes
	system time =       0.02 seconds =       0.00 minutes
	total time  =          1 seconds =       0.02 minutes
Total time:
	user time   =       0.46 seconds =       0.01 minutes
	system time =       0.03 seconds =       0.00 minutes
	total time  =          1 seconds =       0.02 minutes

			----------------------------------
			 OPTKING: for geometry optimizations  
			  - R.A. King,  Bethel University   
			------------------------------------

	Internal coordinates to be generated automatically.
	Detected frag with atoms:  1 2 3 4 5
	---Fragment 1 Bond Connectivity---
	 1 : 2 3 4 5
	 2 : 1
	 3 : 1
	 4 : 1
	 5 : 1

	---Fragment 1 Geometry and Gradient---
	 C           0.0000510839       -0.0004896923        0.0000000000
	 H          -0.9697563675        0.6882701297       -1.6791180451
	 H          -0.9697563675        0.6882701297        1.6791180451
	 H           1.9392861517        0.6879243099        0.0000000000
	 H          -0.0003816634       -2.0586338873        0.0000000000
	             0.0000345323       -0.0003451025       -0.0000000000
	            -0.0016666458        0.0013834205       -0.0028227406
	            -0.0016666458        0.0013834205        0.0028227406
	             0.0033086071        0.0013839367        0.0000000000
	            -0.0000098478       -0.0038056752        0.0000000000

	Previous optimization step data not found.  Starting new optimization.

	---Fragment 1 Intrafragment Coordinates---
	 - Coordinate -           - BOHR/RAD -       - ANG/DEG -
	 R(1,2)           =         2.057755	       1.088917
	 R(1,3)           =         2.057755	       1.088917
	 R(1,4)           =         2.057801	       1.088942
	 R(1,5)           =         2.058144	       1.089123
	 B(2,1,3)         =         1.908898	     109.371785
	 B(2,1,4)         =         1.909393	     109.400185
	 B(2,1,5)         =         1.911993	     109.549138
	 B(3,1,4)         =         1.909393	     109.400185
	 B(3,1,5)         =         1.911993	     109.549138
	 B(4,1,5)         =         1.912122	     109.556530

	Current energy   :       -40.1956242958

	Generating empirical Hessian (Schlegel '84) for each fragment.
	Going to follow RFO solution 1.
	Projected energy change by RFO approximation:        -0.0000760008

	Back-transformation to cartesian coordinates...
	Successfully converged to displaced geometry.

	---Internal Coordinate Step in ANG or DEG, aJ/ANG or AJ/DEG ---
	 ----------------------------------------------------------------------
	 Coordinate             Previous        Force       Change         New 
	 ----------             --------       ------       ------       ------
	 R(1,2)          =      1.088917    -0.029263    -0.005377     1.083540
	 R(1,3)          =      1.088917    -0.029263    -0.005377     1.083540
	 R(1,4)          =      1.088942    -0.029502    -0.005422     1.083520
	 R(1,5)          =      1.089123    -0.031354    -0.005766     1.083358
	 B(2,1,3)        =    109.371785     0.000020     0.092676   109.464461
	 B(2,1,4)        =    109.400185     0.000014     0.065905   109.466090
	 B(2,1,5)        =    109.549138    -0.000015    -0.072478   109.476660
	 B(3,1,4)        =    109.400185     0.000014     0.065905   109.466090
	 B(3,1,5)        =    109.549138    -0.000015    -0.072478   109.476660
	 B(4,1,5)        =    109.556530    -0.000017    -0.079169   109.477361
	 ----------------------------------------------------------------------

  ==> Convergence Check <==

  Measures of convergence in internal coordinates in au.
  Criteria marked as inactive (o), active & met (*), and active & unmet ( ).
  --------------------------------------------------------------------------------------------- ~
   Step     Total Energy     Delta E     MAX Force     RMS Force      MAX Disp      RMS Disp    ~
  --------------------------------------------------------------------------------------------- ~
    Convergence Criteria    1.00e-06 *    3.00e-04 *             o    1.20e-03 *             o  ~
  --------------------------------------------------------------------------------------------- ~
      1     -40.19562430   -4.02e+01      3.81e-03      2.30e-03 o    1.09e-02      6.64e-03 o  ~
  ---------------------------------------------------------------------------------------------

	Writing optimization data to binary file.
	Structure for next step:
	Cartesian Geometry (au)
	    C    -0.0000933206   0.0008872097   0.0000000000
	    H    -0.9652452959   0.6837197808  -1.6717828086
	    H    -0.9652452959   0.6837197808   1.6717828086
	    H     1.9303711377   0.6833758869   0.0000000000
	    H    -0.0003443882  -2.0463616686   0.0000000000
			--------------------------
			 OPTKING Finished Execution 
			--------------------------

*** tstart() called on lawn-143-215-103-161.lawn.gatech.edu
*** at Fri Apr 27 14:40:09 2012


         ---------------------------------------------------------
                                   SCF
            by Justin Turney, Rob Parrish, and Andy Simmonett
                              RHF Reference
                        1 Threads,    256 MiB Core
         ---------------------------------------------------------

  ==> Geometry <==

    Molecular point group: cs

    Geometry (in Angstrom), charge = 0, multiplicity = 1:

       Center              X                  Y                   Z       
    ------------   -----------------  -----------------  -----------------
           C          0.000003012692    -0.000030104943     0.000000000000
           H         -0.510733415494     0.361309328964    -0.884669360032
           H         -0.510733415494     0.361309328964     0.884669360032
           H          1.021560805983     0.361127348124     0.000000000000
           H         -0.000129846601    -1.083387551652     0.000000000000

  Running in cs symmetry.

  Nuclear repulsion =   13.516126048970438

  Charge       = 0
  Multiplicity = 1
  Electrons    = 10
  Nalpha       = 5
  Nbeta        = 5

  ==> Algorithm <==

  SCF Algorithm Type is DF.
  DIIS enabled.
  MOM disabled.
  Fractional occupation disabled.
  Guess Type is CORE.
  Energy threshold   = 1.00e-08
  Density threshold  = 1.00e-08
  Integral threshold = 0.00e+00

  ==> Primary Basis <==

  Basis Set: 6-31+G*
    Number of shells: 16
    Number of basis function: 27
    Number of Cartesian functions: 27
    Spherical Harmonics?: false
    Max angular momentum: 2

  ==> Pre-Iterations <==

  Minimum eigenvalue in the overlap matrix is 1.1932670132E-02.
  Using Symmetric Orthogonalization.
  SCF Guess: Core (One-Electron) Hamiltonian.

  Initial RHF energy:   -31.11479605395736

   -------------------------------------------------------
    Irrep   Nso     Nmo     Nalpha   Nbeta   Ndocc  Nsocc
   -------------------------------------------------------
     A'        20      20       4       4       4       0
     A"         7       7       1       1       1       0
   -------------------------------------------------------
    Total      27      27       5       5       5       0
   -------------------------------------------------------

  ==> Integral Setup <==

  ==> DFJK: Density-Fitted J/K Matrices <==

    J tasked:                  Yes
    K tasked:                  Yes
    wK tasked:                  No
    OpenMP threads:              1
    Integrals threads:           1
    Memory (MB):               183
    Algorithm:                Core
    Integral Cache:           NONE
    Schwarz Cutoff:          0E+00
    Fitting Condition:       1E-12

   => Auxiliary Basis Set <=

  Basis Set: CC-PVDZ-JKFIT
    Number of shells: 60
    Number of basis function: 162
    Number of Cartesian functions: 181
    Spherical Harmonics?: true
    Max angular momentum: 3

  ==> Iterations <==

                        Total Energy        Delta E     Density RMS

   @RHF iter   1:   -32.60002317381522   -1.48523e+00   0.00000e+00 
   @RHF iter   2:   -34.03090155005343   -1.43088e+00   2.39851e-01 DIIS
   @RHF iter   3:   -39.53424606734848   -5.50334e+00   1.06577e-01 DIIS
   @RHF iter   4:   -40.12655244525867   -5.92306e-01   2.05393e-02 DIIS
   @RHF iter   5:   -40.19531527855865   -6.87628e-02   1.12601e-02 DIIS
   @RHF iter   6:   -40.19566522940151   -3.49951e-04   1.89442e-03 DIIS
   @RHF iter   7:   -40.19569265206043   -2.74227e-05   3.12874e-04 DIIS
   @RHF iter   8:   -40.19569325341229   -6.01352e-07   4.72904e-05 DIIS
   @RHF iter   9:   -40.19569325388881   -4.76518e-10   1.03698e-06 DIIS
   @RHF iter  10:   -40.19569325391363   -2.48264e-11   2.13235e-07 DIIS
   @RHF iter  11:   -40.19569325391403   -3.97904e-13   4.00559e-08 DIIS

  ==> Post-Iterations <==

	Orbital Energies (a.u.)
	-----------------------

	Doubly Occupied:                                                      

	   1A'   -11.206758     2A'    -0.946696     3A'    -0.547998  
	   4A'    -0.547925     1A"    -0.547916  

	Virtual:                                                              

	   5A'     0.093291     6A'     0.122096     7A'     0.122102  
	   2A"     0.122103     3A"     0.334632     8A'     0.334638  
	   9A'     0.334687    10A'     0.417385    11A'     0.854635  
	  12A'     0.854689     4A"     0.854695     5A"     1.210842  
	  13A'     1.210859    14A'     1.211003    15A'     1.313800  
	  16A'     1.389378    17A'     1.939438     6A"     1.939439  
	   7A"     2.626470    18A'     2.626483    19A'     2.626625  
	  20A'     4.641377  

	Final Occupation by Irrep:
	         A'    A" 
	DOCC [     4,    1 ]

  Energy converged.

  @RHF Final Energy:   -40.19569325391403

   => Energetics <=

    Nuclear Repulsion Energy =         13.5161260489704382
    One-Electron Energy =             -79.8290511336609114
    Two-Electron Energy =              26.1172318307764364
    DFT Functional Energy =             0.0000000000000000
    Empirical Dispersion Energy =       0.0000000000000000
    Total Energy =                    -40.1956932539140439

  ==> Properties <==

  Nuclear Dipole Moment: (a.u.)
     X:    -0.0000      Y:     0.0003      Z:     0.0000

  Electronic Dipole Moment: (a.u.)
     X:     0.0000      Y:    -0.0004      Z:     0.0000

  Dipole Moment: (a.u.)
     X:     0.0000      Y:    -0.0000      Z:     0.0000     Total:     0.0000

  Dipole Moment: (Debye)
     X:     0.0000      Y:    -0.0001      Z:     0.0000     Total:     0.0001


  Saving occupied orbitals to File 180.

*** tstop() called on lawn-143-215-103-161.lawn.gatech.edu at Fri Apr 27 14:40:09 2012
Module time:
	user time   =       0.16 seconds =       0.00 minutes
	system time =       0.00 seconds =       0.00 minutes
	total time  =          0 seconds =       0.00 minutes
Total time:
	user time   =       0.62 seconds =       0.01 minutes
	system time =       0.04 seconds =       0.00 minutes
	total time  =          1 seconds =       0.02 minutes

*** tstart() called on lawn-143-215-103-161.lawn.gatech.edu
*** at Fri Apr 27 14:40:09 2012


         ------------------------------------------------------------
                                   SCF GRAD                          
                          Rob Parrish, Justin Turney,                
                       Andy Simmonett, and Alex Sokolov              
         ------------------------------------------------------------

  ==> Geometry <==

    Molecular point group: cs

    Geometry (in Angstrom), charge = 0, multiplicity = 1:

       Center              X                  Y                   Z       
    ------------   -----------------  -----------------  -----------------
           C          0.000003012692    -0.000030104943     0.000000000000
           H         -0.510733415494     0.361309328964    -0.884669360032
           H         -0.510733415494     0.361309328964     0.884669360032
           H          1.021560805983     0.361127348124     0.000000000000
           H         -0.000129846601    -1.083387551652     0.000000000000

  Nuclear repulsion =   13.516126048970438

  ==> Basis Set <==

  Basis Set: 6-31+G*
    Number of shells: 16
    Number of basis function: 27
    Number of Cartesian functions: 27
    Spherical Harmonics?: false
    Max angular momentum: 2

  ==> DFJKGrad: Density-Fitted SCF Gradients <==

    J tasked:                  Yes
    K tasked:                  Yes
    wK tasked:                  No
    OpenMP threads:              1
    Integrals threads:           1
    Memory (MB):               183
    Schwarz Cutoff:          0E+00
    Fitting Condition:       1E-12

   => Auxiliary Basis Set <=

  Basis Set: CC-PVDZ-JKFIT
    Number of shells: 60
    Number of basis function: 162
    Number of Cartesian functions: 181
    Spherical Harmonics?: true
    Max angular momentum: 3

  ## Total Gradient (Symmetry 0) ##
  Irrep: 1 Size: 5 x 3

                 1            2            3

    1    0.0000154   -0.0001487   -0.0000000
    2    0.0001543   -0.0000982    0.0002703
    3    0.0001543   -0.0000982   -0.0002703
    4   -0.0003236   -0.0001029    0.0000000
    5   -0.0000005    0.0004479    0.0000000




*** tstop() called on lawn-143-215-103-161.lawn.gatech.edu at Fri Apr 27 14:40:09 2012
Module time:
	user time   =       0.30 seconds =       0.01 minutes
	system time =       0.02 seconds =       0.00 minutes
	total time  =          0 seconds =       0.00 minutes
Total time:
	user time   =       0.92 seconds =       0.02 minutes
	system time =       0.06 seconds =       0.00 minutes
	total time  =          1 seconds =       0.02 minutes

			----------------------------------
			 OPTKING: for geometry optimizations  
			  - R.A. King,  Bethel University   
			------------------------------------

	Previous internal coordinate definitions found.
	---Fragment 1 Geometry and Gradient---
	 C           0.0000056932       -0.0000568901        0.0000000000
	 H          -0.9651462822        0.6827756810       -1.6717828086
	 H          -0.9651462822        0.6827756810        1.6717828086
	 H           1.9304701514        0.6824317871        0.0000000000
	 H          -0.0002453745       -2.0473057684        0.0000000000
	             0.0000154349       -0.0001486968       -0.0000000000
	             0.0001543117       -0.0000981635        0.0002702639
	             0.0001543117       -0.0000981635       -0.0002702639
	            -0.0003236069       -0.0001028607        0.0000000000
	            -0.0000004513        0.0004478845        0.0000000000

	---Fragment 1 Intrafragment Coordinates---
	 - Coordinate -           - BOHR/RAD -       - ANG/DEG -
	 R(1,2)           =         2.047593	       1.083540
	 R(1,3)           =         2.047593	       1.083540
	 R(1,4)           =         2.047556	       1.083520
	 R(1,5)           =         2.047249	       1.083358
	 B(2,1,3)         =         1.910515	     109.464461
	 B(2,1,4)         =         1.910544	     109.466090
	 B(2,1,5)         =         1.910728	     109.476660
	 B(3,1,4)         =         1.910544	     109.466090
	 B(3,1,5)         =         1.910728	     109.476660
	 B(4,1,5)         =         1.910740	     109.477361

	Current energy   :       -40.1956932539

	Energy change for the previous step:
		Projected    :        -0.0000760008
		Actual       :        -0.0000689581
	Energy ratio indicates good step: Trust radius increased to 8.000e-01.


	Performing BFGS update with previous 1 gradient(s).
	Going to follow RFO solution 1.
	Projected energy change by RFO approximation:        -0.0000006886

	Back-transformation to cartesian coordinates...
	Successfully converged to displaced geometry.

	---Internal Coordinate Step in ANG or DEG, aJ/ANG or AJ/DEG ---
	 ----------------------------------------------------------------------
	 Coordinate             Previous        Force       Change         New 
	 ----------             --------       ------       ------       ------
	 R(1,2)          =      1.083540     0.002687     0.000448     1.083988
	 R(1,3)          =      1.083540     0.002687     0.000448     1.083988
	 R(1,4)          =      1.083520     0.002796     0.000466     1.083986
	 R(1,5)          =      1.083358     0.003690     0.000616     1.083974
	 B(2,1,3)        =    109.464461     0.000001     0.004515   109.468976
	 B(2,1,4)        =    109.466090     0.000001     0.003357   109.469447
	 B(2,1,5)        =    109.476660    -0.000001    -0.003629   109.473031
	 B(3,1,4)        =    109.466090     0.000001     0.003357   109.469447
	 B(3,1,5)        =    109.476660    -0.000001    -0.003629   109.473031
	 B(4,1,5)        =    109.477361    -0.000001    -0.003970   109.473392
	 ----------------------------------------------------------------------

  ==> Convergence Check <==

  Measures of convergence in internal coordinates in au.
  Criteria marked as inactive (o), active & met (*), and active & unmet ( ).
  ---------------------------------------------------------------------------------------------
   Step     Total Energy     Delta E     MAX Force     RMS Force      MAX Disp      RMS Disp   
  ---------------------------------------------------------------------------------------------
    Convergence Criteria    1.00e-06 *    3.00e-04 *             o    1.20e-03 *             o
  ---------------------------------------------------------------------------------------------
      2     -40.19569325   -6.90e-05      4.48e-04      2.30e-04 o    1.16e-03 *    5.99e-04 o  ~
  ---------------------------------------------------------------------------------------------

	Writing optimization data to binary file.
	Structure for next step:
	Cartesian Geometry (au)
	    C    -0.0000079547   0.0000800279   0.0000000000
	    H    -0.9655676108   0.6830685731  -1.6725205887
	    H    -0.9655676108   0.6830685731   1.6725205887
	    H     1.9313317202   0.6827366392   0.0000000000
	    H    -0.0002506383  -2.0483333227   0.0000000000
			--------------------------
			 OPTKING Finished Execution 
			--------------------------

*** tstart() called on lawn-143-215-103-161.lawn.gatech.edu
*** at Fri Apr 27 14:40:09 2012


         ---------------------------------------------------------
                                   SCF
            by Justin Turney, Rob Parrish, and Andy Simmonett
                              RHF Reference
                        1 Threads,    256 MiB Core
         ---------------------------------------------------------

  ==> Geometry <==

    Molecular point group: cs

    Geometry (in Angstrom), charge = 0, multiplicity = 1:

       Center              X                  Y                   Z       
    ------------   -----------------  -----------------  -----------------
           C          0.000000742554    -0.000007330489     0.000000000000
           H         -0.510951420963     0.361414641355    -0.885059776446
           H         -0.510951420963     0.361414641355     0.885059776446
           H          1.022021680549     0.361238989527     0.000000000000
           H         -0.000127680087    -1.083980989359     0.000000000000

  Running in cs symmetry.

  Nuclear repulsion =   13.509958701055163

  Charge       = 0
  Multiplicity = 1
  Electrons    = 10
  Nalpha       = 5
  Nbeta        = 5

  ==> Algorithm <==

  SCF Algorithm Type is DF.
  DIIS enabled.
  MOM disabled.
  Fractional occupation disabled.
  Guess Type is CORE.
  Energy threshold   = 1.00e-08
  Density threshold  = 1.00e-08
  Integral threshold = 0.00e+00

  ==> Primary Basis <==

  Basis Set: 6-31+G*
    Number of shells: 16
    Number of basis function: 27
    Number of Cartesian functions: 27
    Spherical Harmonics?: false
    Max angular momentum: 2

  ==> Pre-Iterations <==

  Minimum eigenvalue in the overlap matrix is 1.1956123273E-02.
  Using Symmetric Orthogonalization.
  SCF Guess: Core (One-Electron) Hamiltonian.

  Initial RHF energy:   -31.11648015162786

   -------------------------------------------------------
    Irrep   Nso     Nmo     Nalpha   Nbeta   Ndocc  Nsocc
   -------------------------------------------------------
     A'        20      20       4       4       4       0
     A"         7       7       1       1       1       0
   -------------------------------------------------------
    Total      27      27       5       5       5       0
   -------------------------------------------------------

  ==> Integral Setup <==

  ==> DFJK: Density-Fitted J/K Matrices <==

    J tasked:                  Yes
    K tasked:                  Yes
    wK tasked:                  No
    OpenMP threads:              1
    Integrals threads:           1
    Memory (MB):               183
    Algorithm:                Core
    Integral Cache:           NONE
    Schwarz Cutoff:          0E+00
    Fitting Condition:       1E-12

   => Auxiliary Basis Set <=

  Basis Set: CC-PVDZ-JKFIT
    Number of shells: 60
    Number of basis function: 162
    Number of Cartesian functions: 181
    Spherical Harmonics?: true
    Max angular momentum: 3

  ==> Iterations <==

                        Total Energy        Delta E     Density RMS

   @RHF iter   1:   -32.59827419506095   -1.48179e+00   0.00000e+00 
   @RHF iter   2:   -34.03084040368179   -1.43257e+00   2.39843e-01 DIIS
   @RHF iter   3:   -39.53349996456263   -5.50266e+00   1.06608e-01 DIIS
   @RHF iter   4:   -40.12636514459088   -5.92865e-01   2.05392e-02 DIIS
   @RHF iter   5:   -40.19531508287599   -6.89499e-02   1.12694e-02 DIIS
   @RHF iter   6:   -40.19566581410869   -3.50731e-04   1.89608e-03 DIIS
   @RHF iter   7:   -40.19569333203746   -2.75179e-05   3.13112e-04 DIIS
   @RHF iter   8:   -40.19569393596823   -6.03931e-07   4.73291e-05 DIIS
   @RHF iter   9:   -40.19569393644318   -4.74948e-10   1.03622e-06 DIIS
   @RHF iter  10:   -40.19569393646796   -2.47837e-11   2.13296e-07 DIIS
   @RHF iter  11:   -40.19569393646832   -3.55271e-13   4.00923e-08 DIIS

  ==> Post-Iterations <==

	Orbital Energies (a.u.)
	-----------------------

	Doubly Occupied:                                                      

	   1A'   -11.207002     2A'    -0.946495     3A'    -0.547831  
	   4A'    -0.547817     1A"    -0.547815  

	Virtual:                                                              

	   5A'     0.093292     6A'     0.122109     7A'     0.122111  
	   2A"     0.122111     3A"     0.334501     8A'     0.334502  
	   9A'     0.334510    10A'     0.417218    11A'     0.854837  
	  12A'     0.854841     4A"     0.854841     5A"     1.210496  
	  13A'     1.210498    14A'     1.210522    15A'     1.313597  
	  16A'     1.388648    17A'     1.939523     6A"     1.939523  
	  18A'     2.625748    19A'     2.625752     7A"     2.625753  
	  20A'     4.640895  

	Final Occupation by Irrep:
	         A'    A" 
	DOCC [     4,    1 ]

  Energy converged.

  @RHF Final Energy:   -40.19569393646832

   => Energetics <=

    Nuclear Repulsion Energy =         13.5099587010551634
    One-Electron Energy =             -79.8173852861314117
    Two-Electron Energy =              26.1117326486079335
    DFT Functional Energy =             0.0000000000000000
    Empirical Dispersion Energy =       0.0000000000000000
    Total Energy =                    -40.1956939364683095

  ==> Properties <==

  Nuclear Dipole Moment: (a.u.)
     X:    -0.0000      Y:     0.0001      Z:     0.0000

  Electronic Dipole Moment: (a.u.)
     X:     0.0000      Y:    -0.0001      Z:     0.0000

  Dipole Moment: (a.u.)
     X:    -0.0000      Y:     0.0000      Z:     0.0000     Total:     0.0000

  Dipole Moment: (Debye)
     X:    -0.0000      Y:     0.0000      Z:     0.0000     Total:     0.0000


  Saving occupied orbitals to File 180.

*** tstop() called on lawn-143-215-103-161.lawn.gatech.edu at Fri Apr 27 14:40:09 2012
Module time:
	user time   =       0.16 seconds =       0.00 minutes
	system time =       0.00 seconds =       0.00 minutes
	total time  =          0 seconds =       0.00 minutes
Total time:
	user time   =       1.08 seconds =       0.02 minutes
	system time =       0.07 seconds =       0.00 minutes
	total time  =          1 seconds =       0.02 minutes

*** tstart() called on lawn-143-215-103-161.lawn.gatech.edu
*** at Fri Apr 27 14:40:09 2012


         ------------------------------------------------------------
                                   SCF GRAD                          
                          Rob Parrish, Justin Turney,                
                       Andy Simmonett, and Alex Sokolov              
         ------------------------------------------------------------

  ==> Geometry <==

    Molecular point group: cs

    Geometry (in Angstrom), charge = 0, multiplicity = 1:

       Center              X                  Y                   Z       
    ------------   -----------------  -----------------  -----------------
           C          0.000000742554    -0.000007330489     0.000000000000
           H         -0.510951420963     0.361414641355    -0.885059776446
           H         -0.510951420963     0.361414641355     0.885059776446
           H          1.022021680549     0.361238989527     0.000000000000
           H         -0.000127680087    -1.083980989359     0.000000000000

  Nuclear repulsion =   13.509958701055163

  ==> Basis Set <==

  Basis Set: 6-31+G*
    Number of shells: 16
    Number of basis function: 27
    Number of Cartesian functions: 27
    Spherical Harmonics?: false
    Max angular momentum: 2

  ==> DFJKGrad: Density-Fitted SCF Gradients <==

    J tasked:                  Yes
    K tasked:                  Yes
    wK tasked:                  No
    OpenMP threads:              1
    Integrals threads:           1
    Memory (MB):               183
    Schwarz Cutoff:          0E+00
    Fitting Condition:       1E-12

   => Auxiliary Basis Set <=

  Basis Set: CC-PVDZ-JKFIT
    Number of shells: 60
    Number of basis function: 162
    Number of Cartesian functions: 181
    Spherical Harmonics?: true
    Max angular momentum: 3

  ## Total Gradient (Symmetry 0) ##
  Irrep: 1 Size: 5 x 3

                 1            2            3

    1    0.0000020   -0.0000199   -0.0000000
    2   -0.0000025    0.0000063   -0.0000033
    3   -0.0000025    0.0000063    0.0000033
    4    0.0000034    0.0000062    0.0000000
    5   -0.0000004    0.0000011    0.0000000




*** tstop() called on lawn-143-215-103-161.lawn.gatech.edu at Fri Apr 27 14:40:10 2012
Module time:
	user time   =       0.30 seconds =       0.01 minutes
	system time =       0.03 seconds =       0.00 minutes
	total time  =          1 seconds =       0.02 minutes
Total time:
	user time   =       1.38 seconds =       0.02 minutes
	system time =       0.10 seconds =       0.00 minutes
	total time  =          2 seconds =       0.03 minutes

			----------------------------------
			 OPTKING: for geometry optimizations  
			  - R.A. King,  Bethel University   
			------------------------------------

	Previous internal coordinate definitions found.
	---Fragment 1 Geometry and Gradient---
	 C           0.0000014032       -0.0000138526        0.0000000000
	 H          -0.9655582528        0.6829746926       -1.6725205887
	 H          -0.9655582528        0.6829746926        1.6725205887
	 H           1.9313410781        0.6826427587        0.0000000000
	 H          -0.0002412804       -2.0484272031        0.0000000000
	             0.0000020034       -0.0000198731       -0.0000000000
	            -0.0000024787        0.0000062829       -0.0000033106
	            -0.0000024787        0.0000062829        0.0000033106
	             0.0000033779        0.0000061728        0.0000000000
	            -0.0000004239        0.0000011345        0.0000000000

	---Fragment 1 Intrafragment Coordinates---
	 - Coordinate -           - BOHR/RAD -       - ANG/DEG -
	 R(1,2)           =         2.048439	       1.083988
	 R(1,3)           =         2.048439	       1.083988
	 R(1,4)           =         2.048437	       1.083986
	 R(1,5)           =         2.048413	       1.083974
	 B(2,1,3)         =         1.910594	     109.468976
	 B(2,1,4)         =         1.910602	     109.469447
	 B(2,1,5)         =         1.910665	     109.473031
	 B(3,1,4)         =         1.910602	     109.469447
	 B(3,1,5)         =         1.910665	     109.473031
	 B(4,1,5)         =         1.910671	     109.473392

	Current energy   :       -40.1956939365

	Energy change for the previous step:
		Projected    :        -0.0000006886
		Actual       :        -0.0000006826
	Energy ratio indicates good step: Trust radius increased to 1.000e+00.


	Performing BFGS update with previous 1 gradient(s).
	Going to follow RFO solution 1.
	Projected energy change by RFO approximation:        -0.0000000006

	Back-transformation to cartesian coordinates...
	Successfully converged to displaced geometry.

	---Internal Coordinate Step in ANG or DEG, aJ/ANG or AJ/DEG ---
	 ----------------------------------------------------------------------
	 Coordinate             Previous        Force       Change         New 
	 ----------             --------       ------       ------       ------
	 R(1,2)          =      1.083988    -0.000049    -0.000008     1.083979
	 R(1,3)          =      1.083988    -0.000049    -0.000008     1.083979
	 R(1,4)          =      1.083986    -0.000043    -0.000007     1.083979
	 R(1,5)          =      1.083974     0.000009     0.000003     1.083976
	 B(2,1,3)        =    109.468976     0.000000     0.001962   109.470938
	 B(2,1,4)        =    109.469447     0.000000     0.001545   109.470992
	 B(2,1,5)        =    109.473031    -0.000000    -0.001581   109.471450
	 B(3,1,4)        =    109.469447     0.000000     0.001545   109.470992
	 B(3,1,5)        =    109.473031    -0.000000    -0.001581   109.471450
	 B(4,1,5)        =    109.473392    -0.000000    -0.001890   109.471501
	 ----------------------------------------------------------------------

  ==> Convergence Check <==

  Measures of convergence in internal coordinates in au.
  Criteria marked as inactive (o), active & met (*), and active & unmet ( ).
  ---------------------------------------------------------------------------------------------
   Step     Total Energy     Delta E     MAX Force     RMS Force      MAX Disp      RMS Disp   
  ---------------------------------------------------------------------------------------------
    Convergence Criteria    1.00e-06 *    3.00e-04 *             o    1.20e-03 *             o
  ---------------------------------------------------------------------------------------------
      3     -40.19569394   -6.83e-07 *    5.97e-06 *    4.84e-06 o    3.42e-05 *    2.44e-05 o  ~
  ---------------------------------------------------------------------------------------------


  **** Optimization is complete! ****

  ==> Optimization Summary <==

  Measures of convergence in internal coordinates in au.
  --------------------------------------------------------------------------------------------------------------- ~
   Step         Total Energy             Delta E       MAX Force       RMS Force        MAX Disp        RMS Disp  ~
  --------------------------------------------------------------------------------------------------------------- ~
      1     -40.195624295836    -40.195624295836      0.00380568      0.00229791      0.01089535      0.00663762  ~
      2     -40.195693253914     -0.000068958078      0.00044788      0.00023006      0.00116447      0.00059930  ~
      3     -40.195693936468     -0.000000682554      0.00000597      0.00000484      0.00003424      0.00002436  ~
  --------------------------------------------------------------------------------------------------------------- ~

	Writing optimization data to binary file.
	Final energy is    -40.1956939364683
	Final (previous) structure:
	Cartesian Geometry (au)
	    C     0.0000014032  -0.0000138526   0.0000000000
	    H    -0.9655582528   0.6829746926  -1.6725205887
	    H    -0.9655582528   0.6829746926   1.6725205887
	    H     1.9313410781   0.6826427587   0.0000000000
	    H    -0.0002412804  -2.0484272031   0.0000000000
	Saving final (previous) structure.
			--------------------------
			 OPTKING Finished Execution 
			--------------------------


  Variable Map:
  ----------------------------------------------------------------------------
  "CURRENT ENERGY"           =>     -40.195693936468
  "CURRENT REFERENCE ENERGY" =>     -40.195693936468
  "NUCLEAR REPULSION ENERGY" =>      13.509958701055
  "ONE-ELECTRON ENERGY"      =>     -79.817385286131
  "OPTIMIZATION ITERATIONS"  =>       3.000000000000
  "SCF DIPOLE X"             =>      -0.000002144280
  "SCF DIPOLE Y"             =>       0.000020966498
  "SCF DIPOLE Z"             =>       0.000000000000
  "SCF ITERATION ENERGY"     =>     -40.195693936468
  "SCF TOTAL ENERGY"         =>     -40.195693936468
  "TWO-ELECTRON ENERGY"      =>      26.111732648608



DATABASE RESULT: computation 80955 for reagent BASIC-ch4-reagent yields electronic energy     -40.195693936468

*** PSI4 exiting successfully. Buy a developer a beer!
